 variables = "x", "y", "z"
 zone i=         101 , j=         101 , f=point
   0.0000000000000000        0.0000000000000000        2.9165860402692791     
   0.0000000000000000       1.00000000000000002E-002   1.0834139597307209     
   0.0000000000000000       2.00000000000000004E-002  0.97140037600865314     
   0.0000000000000000       2.99999999999999989E-002  0.97984501426187398     
   0.0000000000000000       4.00000000000000008E-002  0.98905547305473918     
   0.0000000000000000       5.00000000000000028E-002  0.99356557304159554     
   0.0000000000000000       6.00000000000000047E-002  0.99587651595714144     
   0.0000000000000000       7.00000000000000067E-002  0.99719932217631002     
   0.0000000000000000       8.00000000000000017E-002  0.99801413047460175     
   0.0000000000000000       8.99999999999999967E-002  0.99854164872760576     
   0.0000000000000000       9.99999999999999917E-002  0.99889711685246430     
   0.0000000000000000       0.10999999999999999       0.99914494854283165     
   0.0000000000000000       0.11999999999999998       0.99932285731386972     
   0.0000000000000000       0.12999999999999998       0.99945382491663781     
   0.0000000000000000       0.13999999999999999       0.99955236306424844     
   0.0000000000000000       0.14999999999999999       0.99962792650891386     
   0.0000000000000000       0.16000000000000000       0.99968684727661095     
   0.0000000000000000       0.17000000000000001       0.99973347071499075     
   0.0000000000000000       0.18000000000000002       0.99977084434924790     
   0.0000000000000000       0.19000000000000003       0.99980114760181049     
   0.0000000000000000       0.20000000000000004       0.99982596676465940     
   0.0000000000000000       0.21000000000000005       0.99984647503451973     
   0.0000000000000000       0.22000000000000006       0.99986355286652162     
   0.0000000000000000       0.23000000000000007       0.99987786996852379     
   0.0000000000000000       0.24000000000000007       0.99988994213626992     
   0.0000000000000000       0.25000000000000006       0.99990017127774555     
   0.0000000000000000       0.26000000000000006       0.99990887401109618     
   0.0000000000000000       0.27000000000000007       0.99991630237203544     
   0.0000000000000000       0.28000000000000008       0.99992265899186950     
   0.0000000000000000       0.29000000000000009       0.99992810834739676     
   0.0000000000000000       0.30000000000000010       0.99993278518434137     
   0.0000000000000000       0.31000000000000011       0.99993680088257308     
   0.0000000000000000       0.32000000000000012       0.99994024830564454     
   0.0000000000000000       0.33000000000000013       0.99994320552240268     
   0.0000000000000000       0.34000000000000014       0.99994573868092096     
   0.0000000000000000       0.35000000000000014       0.99994790423953739     
   0.0000000000000000       0.36000000000000015       0.99994975070615233     
   0.0000000000000000       0.37000000000000016       0.99995131999850684     
   0.0000000000000000       0.38000000000000017       0.99995264851027810     
   0.0000000000000000       0.39000000000000018       0.99995376794746904     
   0.0000000000000000       0.40000000000000019       0.99995470598451042     
   0.0000000000000000       0.41000000000000020       0.99995548677828761     
   0.0000000000000000       0.42000000000000021       0.99995613136985773     
   0.0000000000000000       0.43000000000000022       0.99995665799721767     
   0.0000000000000000       0.44000000000000022       0.99995708233754232     
   0.0000000000000000       0.45000000000000023       0.99995741769347668     
   0.0000000000000000       0.46000000000000024       0.99995767513503386     
   0.0000000000000000       0.47000000000000025       0.99995786360621430     
   0.0000000000000000       0.48000000000000026       0.99995799000347629     
   0.0000000000000000       0.49000000000000027       0.99995805923150871     
   0.0000000000000000       0.50000000000000022       0.99995807424034200     
   0.0000000000000000       0.51000000000000023       0.99995803604655276     
   0.0000000000000000       0.52000000000000024       0.99995794374017555     
   0.0000000000000000       0.53000000000000025       0.99995779447784172     
   0.0000000000000000       0.54000000000000026       0.99995758346158081     
   0.0000000000000000       0.55000000000000027       0.99995730390165516     
   0.0000000000000000       0.56000000000000028       0.99995694696062909     
   0.0000000000000000       0.57000000000000028       0.99995650167461436     
   0.0000000000000000       0.58000000000000029       0.99995595484622690     
   0.0000000000000000       0.59000000000000030       0.99995529090210100     
   0.0000000000000000       0.60000000000000031       0.99995449170585471     
   0.0000000000000000       0.61000000000000032       0.99995353631495631     
   0.0000000000000000       0.62000000000000033       0.99995240066691005     
   0.0000000000000000       0.63000000000000034       0.99995105717637833     
   0.0000000000000000       0.64000000000000035       0.99994947421989844     
   0.0000000000000000       0.65000000000000036       0.99994761547845878     
   0.0000000000000000       0.66000000000000036       0.99994543909977107     
   0.0000000000000000       0.67000000000000037       0.99994289663084990     
   0.0000000000000000       0.68000000000000038       0.99993993165647033     
   0.0000000000000000       0.69000000000000039       0.99993647805870833     
   0.0000000000000000       0.70000000000000040       0.99993245778488382     
   0.0000000000000000       0.71000000000000041       0.99992777797277599     
   0.0000000000000000       0.72000000000000042       0.99992232722837615     
   0.0000000000000000       0.73000000000000043       0.99991597077593153     
   0.0000000000000000       0.74000000000000044       0.99990854409255703     
   0.0000000000000000       0.75000000000000044       0.99989984448487190     
   0.0000000000000000       0.76000000000000045       0.99988961983942737     
   0.0000000000000000       0.77000000000000046       0.99987755344522955     
   0.0000000000000000       0.78000000000000047       0.99986324328709086     
   0.0000000000000000       0.79000000000000048       0.99984617344864479     
   0.0000000000000000       0.80000000000000049       0.99982567408904210     
   0.0000000000000000       0.81000000000000050       0.99980086460891959     
   0.0000000000000000       0.82000000000000051       0.99977057165718319     
   0.0000000000000000       0.83000000000000052       0.99973320877833904     
   0.0000000000000000       0.84000000000000052       0.99968659637806301     
   0.0000000000000000       0.85000000000000053       0.99962768675121705     
   0.0000000000000000       0.86000000000000054       0.99955213436187318     
   0.0000000000000000       0.87000000000000055       0.99945360698620966     
   0.0000000000000000       0.88000000000000056       0.99932264966203888     
   0.0000000000000000       0.89000000000000057       0.99914475044977813     
   0.0000000000000000       0.90000000000000058       0.99889692734884017     
   0.0000000000000000       0.91000000000000059       0.99854146656286669     
   0.0000000000000000       0.92000000000000060       0.99801395407688420     
   0.0000000000000000       0.93000000000000060       0.99719914961225165     
   0.0000000000000000       0.94000000000000061       0.99587634491888677     
   0.0000000000000000       0.95000000000000062       0.99356540086419876     
   0.0000000000000000       0.96000000000000063       0.98905529662815672     
   0.0000000000000000       0.97000000000000064       0.97984483517261545     
   0.0000000000000000       0.98000000000000065       0.97140025877837810     
   0.0000000000000000       0.99000000000000066        1.0834141418058554     
   0.0000000000000000        1.0000000000000007        2.9165858581941446     
  
  1.00000000000000002E-002   0.0000000000000000      -0.91658604026927915     
  1.00000000000000002E-002  1.00000000000000002E-002  0.91658580074249985     
  1.00000000000000002E-002  2.00000000000000004E-002   1.0285994027352838     
  1.00000000000000002E-002  2.99999999999999989E-002   1.0201547619900364     
  1.00000000000000002E-002  4.00000000000000008E-002   1.0109442991676896     
  1.00000000000000002E-002  5.00000000000000028E-002   1.0064341987876182     
  1.00000000000000002E-002  6.00000000000000047E-002   1.0041232578908506     
  1.00000000000000002E-002  7.00000000000000067E-002   1.0028004553854875     
  1.00000000000000002E-002  8.00000000000000017E-002   1.0019856521614776     
  1.00000000000000002E-002  8.99999999999999967E-002   1.0014581401183593     
  1.00000000000000002E-002  9.99999999999999917E-002   1.0011026791719844     
  1.00000000000000002E-002  0.10999999999999999        1.0008548555009229     
  1.00000000000000002E-002  0.11999999999999998        1.0006769554865491     
  1.00000000000000002E-002  0.12999999999999998        1.0005459972882744     
  1.00000000000000002E-002  0.13999999999999999        1.0004474691110803     
  1.00000000000000002E-002  0.14999999999999999        1.0003719161248941     
  1.00000000000000002E-002  0.16000000000000000        1.0003130062280507     
  1.00000000000000002E-002  0.17000000000000001        1.0002663939985361     
  1.00000000000000002E-002  0.18000000000000002        1.0002290318378937     
  1.00000000000000002E-002  0.19000000000000003        1.0001987402516705     
  1.00000000000000002E-002  0.20000000000000004        1.0001739328774391     
  1.00000000000000002E-002  0.21000000000000005        1.0001534364500597     
  1.00000000000000002E-002  0.22000000000000006        1.0001363704485109     
  1.00000000000000002E-002  0.23000000000000007        1.0001220651020539     
  1.00000000000000002E-002  0.24000000000000007        1.0001100045555404     
  1.00000000000000002E-002  0.25000000000000006        1.0000997868454609     
  1.00000000000000002E-002  0.26000000000000006        1.0000910953023705     
  1.00000000000000002E-002  0.27000000000000007        1.0000836778437483     
  1.00000000000000002E-002  0.28000000000000008        1.0000773317961560     
  1.00000000000000002E-002  0.29000000000000009        1.0000718926454426     
  1.00000000000000002E-002  0.30000000000000010        1.0000672256133281     
  1.00000000000000002E-002  0.31000000000000011        1.0000632192921248     
  1.00000000000000002E-002  0.32000000000000012        1.0000597807950586     
  1.00000000000000002E-002  0.33000000000000013        1.0000568320344581     
  1.00000000000000002E-002  0.34000000000000014        1.0000543068475505     
  1.00000000000000002E-002  0.35000000000000014        1.0000521487651126     
  1.00000000000000002E-002  0.36000000000000015        1.0000503092718103     
  1.00000000000000002E-002  0.37000000000000016        1.0000487464455365     
  1.00000000000000002E-002  0.38000000000000017        1.0000474238909050     
  1.00000000000000002E-002  0.39000000000000018        1.0000463099024419     
  1.00000000000000002E-002  0.40000000000000019        1.0000453768080659     
  1.00000000000000002E-002  0.41000000000000020        1.0000446004546506     
  1.00000000000000002E-002  0.42000000000000021        1.0000439598059121     
  1.00000000000000002E-002  0.43000000000000022        1.0000434366292674     
  1.00000000000000002E-002  0.44000000000000022        1.0000430152532553     
  1.00000000000000002E-002  0.45000000000000023        1.0000426823809292     
  1.00000000000000002E-002  0.46000000000000024        1.0000424269476875     
  1.00000000000000002E-002  0.47000000000000025        1.0000422400144160     
  1.00000000000000002E-002  0.48000000000000026        1.0000421146888243     
  1.00000000000000002E-002  0.49000000000000027        1.0000420460695196     
  1.00000000000000002E-002  0.50000000000000022        1.0000420312087854     
  1.00000000000000002E-002  0.51000000000000023        1.0000420690913101     
  1.00000000000000002E-002  0.52000000000000024        1.0000421606272496     
  1.00000000000000002E-002  0.53000000000000025        1.0000423086591106     
  1.00000000000000002E-002  0.54000000000000026        1.0000425179830059     
  1.00000000000000002E-002  0.55000000000000027        1.0000427953859252     
  1.00000000000000002E-002  0.56000000000000028        1.0000431497018085     
  1.00000000000000002E-002  0.57000000000000028        1.0000435918904831     
  1.00000000000000002E-002  0.58000000000000029        1.0000441351449325     
  1.00000000000000002E-002  0.59000000000000030        1.0000447950340359     
  1.00000000000000002E-002  0.60000000000000031        1.0000455896898979     
  1.00000000000000002E-002  0.61000000000000032        1.0000465400513057     
  1.00000000000000002E-002  0.62000000000000033        1.0000476701778918     
  1.00000000000000002E-002  0.63000000000000034        1.0000490076533852     
  1.00000000000000002E-002  0.64000000000000035        1.0000505841012854     
  1.00000000000000002E-002  0.65000000000000036        1.0000524358426779     
  1.00000000000000002E-002  0.66000000000000036        1.0000546047343677     
  1.00000000000000002E-002  0.67000000000000037        1.0000571392366895     
  1.00000000000000002E-002  0.68000000000000038        1.0000600957754266     
  1.00000000000000002E-002  0.69000000000000039        1.0000635404826248     
  1.00000000000000002E-002  0.70000000000000040        1.0000675514289650     
  1.00000000000000002E-002  0.71000000000000041        1.0000722214988191     
  1.00000000000000002E-002  0.72000000000000042        1.0000776621127212     
  1.00000000000000002E-002  0.73000000000000043        1.0000840080774764     
  1.00000000000000002E-002  0.74000000000000044        1.0000914239516425     
  1.00000000000000002E-002  0.75000000000000044        1.0001001124689055     
  1.00000000000000002E-002  0.76000000000000045        1.0001103257875934     
  1.00000000000000002E-002  0.77000000000000046        1.0001223806680066     
  1.00000000000000002E-002  0.78000000000000047        1.0001366791788511     
  1.00000000000000002E-002  0.79000000000000048        1.0001537372939273     
  1.00000000000000002E-002  0.80000000000000049        1.0001742249150734     
  1.00000000000000002E-002  0.81000000000000050        1.0001990227057844     
  1.00000000000000002E-002  0.82000000000000051        1.0002293040839807     
  1.00000000000000002E-002  0.83000000000000052        1.0002666555742237     
  1.00000000000000002E-002  0.84000000000000052        1.0003132568417292     
  1.00000000000000002E-002  0.85000000000000053        1.0003721556640339     
  1.00000000000000002E-002  0.86000000000000054        1.0004476976508532     
  1.00000000000000002E-002  0.87000000000000055        1.0005462151014226     
  1.00000000000000002E-002  0.88000000000000056        1.0006771630558138     
  1.00000000000000002E-002  0.89000000000000057        1.0008550535358300     
  1.00000000000000002E-002  0.90000000000000058        1.0011028686321624     
  1.00000000000000002E-002  0.91000000000000059        1.0014583222454159     
  1.00000000000000002E-002  0.92000000000000060        1.0019858285192011     
  1.00000000000000002E-002  0.93000000000000060        1.0028006278998383     
  1.00000000000000002E-002  0.94000000000000061        1.0041234288621035     
  1.00000000000000002E-002  0.95000000000000062        1.0064343708709711     
  1.00000000000000002E-002  0.96000000000000063        1.0109444754583350     
  1.00000000000000002E-002  0.97000000000000064        1.0201549408738841     
  1.00000000000000002E-002  0.98000000000000065        1.0285995196212723     
  1.00000000000000002E-002  0.99000000000000066       0.91658561826232965     
  1.00000000000000002E-002   1.0000000000000007      -0.91658585819414462     
  
  2.00000000000000004E-002   0.0000000000000000      -0.73403481311070007     
  2.00000000000000004E-002  1.00000000000000002E-002  0.73403408310178331     
  2.00000000000000004E-002  2.00000000000000004E-002   1.0412656745243507     
  2.00000000000000004E-002  2.99999999999999989E-002   1.0661703305527683     
  2.00000000000000004E-002  4.00000000000000008E-002   1.0460585116847165     
  2.00000000000000004E-002  5.00000000000000028E-002   1.0293344770791433     
  2.00000000000000004E-002  6.00000000000000047E-002   1.0192687109047192     
  2.00000000000000004E-002  7.00000000000000067E-002   1.0132614448333701     
  2.00000000000000004E-002  8.00000000000000017E-002   1.0094995705181817     
  2.00000000000000004E-002  8.99999999999999967E-002   1.0070316426125367     
  2.00000000000000004E-002  9.99999999999999917E-002   1.0053499992682029     
  2.00000000000000004E-002  0.10999999999999999        1.0041671919244504     
  2.00000000000000004E-002  0.11999999999999998        1.0033122376919137     
  2.00000000000000004E-002  0.12999999999999998        1.0026794207871421     
  2.00000000000000004E-002  0.13999999999999999        1.0022011971866540     
  2.00000000000000004E-002  0.14999999999999999        1.0018331423472224     
  2.00000000000000004E-002  0.16000000000000000        1.0015452733478376     
  2.00000000000000004E-002  0.17000000000000001        1.0013168815772251     
  2.00000000000000004E-002  0.18000000000000002        1.0011333644886988     
  2.00000000000000004E-002  0.19000000000000003        1.0009842309083750     
  2.00000000000000004E-002  0.20000000000000004        1.0008618147093586     
  2.00000000000000004E-002  0.21000000000000005        1.0007604270209978     
  2.00000000000000004E-002  0.22000000000000006        1.0006757862592779     
  2.00000000000000004E-002  0.23000000000000007        1.0006046279126892     
  2.00000000000000004E-002  0.24000000000000007        1.0005444329052648     
  2.00000000000000004E-002  0.25000000000000006        1.0004932355861265     
  2.00000000000000004E-002  0.26000000000000006        1.0004494860769371     
  2.00000000000000004E-002  0.27000000000000007        1.0004119502978419     
  2.00000000000000004E-002  0.28000000000000008        1.0003796364834912     
  2.00000000000000004E-002  0.29000000000000009        1.0003517405708997     
  2.00000000000000004E-002  0.30000000000000010        1.0003276051989936     
  2.00000000000000004E-002  0.31000000000000011        1.0003066886400787     
  2.00000000000000004E-002  0.32000000000000012        1.0002885410573907     
  2.00000000000000004E-002  0.33000000000000013        1.0002727862218950     
  2.00000000000000004E-002  0.34000000000000014        1.0002591073363543     
  2.00000000000000004E-002  0.35000000000000014        1.0002472359772960     
  2.00000000000000004E-002  0.36000000000000015        1.0002369434237626     
  2.00000000000000004E-002  0.37000000000000016        1.0002280338274854     
  2.00000000000000004E-002  0.38000000000000017        1.0002203388139554     
  2.00000000000000004E-002  0.39000000000000018        1.0002137132028075     
  2.00000000000000004E-002  0.40000000000000019        1.0002080316090505     
  2.00000000000000004E-002  0.41000000000000020        1.0002031857412659     
  2.00000000000000004E-002  0.42000000000000021        1.0001990822540279     
  2.00000000000000004E-002  0.43000000000000022        1.0001956410430637     
  2.00000000000000004E-002  0.44000000000000022        1.0001927938956703     
  2.00000000000000004E-002  0.45000000000000023        1.0001904834275723     
  2.00000000000000004E-002  0.46000000000000024        1.0001886622520368     
  2.00000000000000004E-002  0.47000000000000025        1.0001872923387778     
  2.00000000000000004E-002  0.48000000000000026        1.0001863445296761     
  2.00000000000000004E-002  0.49000000000000027        1.0001857981861852     
  2.00000000000000004E-002  0.50000000000000022        1.0001856409499901     
  2.00000000000000004E-002  0.51000000000000023        1.0001858686043075     
  2.00000000000000004E-002  0.52000000000000024        1.0001864850285047     
  2.00000000000000004E-002  0.53000000000000025        1.0001875022436539     
  2.00000000000000004E-002  0.54000000000000026        1.0001889405515054     
  2.00000000000000004E-002  0.55000000000000027        1.0001908287743144     
  2.00000000000000004E-002  0.56000000000000028        1.0001932046081894     
  2.00000000000000004E-002  0.57000000000000028        1.0001961151085108     
  2.00000000000000004E-002  0.58000000000000029        1.0001996173325567     
  2.00000000000000004E-002  0.59000000000000030        1.0002037791723772     
  2.00000000000000004E-002  0.60000000000000031        1.0002086804203789     
  2.00000000000000004E-002  0.61000000000000032        1.0002144141217679     
  2.00000000000000004E-002  0.62000000000000033        1.0002210882826659     
  2.00000000000000004E-002  0.63000000000000034        1.0002288280212666     
  2.00000000000000004E-002  0.64000000000000035        1.0002377782734708     
  2.00000000000000004E-002  0.65000000000000036        1.0002481071956197     
  2.00000000000000004E-002  0.66000000000000036        1.0002600104480979     
  2.00000000000000004E-002  0.67000000000000037        1.0002737165981328     
  2.00000000000000004E-002  0.68000000000000038        1.0002894939532876     
  2.00000000000000004E-002  0.69000000000000039        1.0003076592360050     
  2.00000000000000004E-002  0.70000000000000040        1.0003285886444790     
  2.00000000000000004E-002  0.71000000000000041        1.0003527320308643     
  2.00000000000000004E-002  0.72000000000000042        1.0003806311861110     
  2.00000000000000004E-002  0.73000000000000043        1.0004129435833582     
  2.00000000000000004E-002  0.74000000000000044        1.0004504734466655     
  2.00000000000000004E-002  0.75000000000000044        1.0004942127509704     
  2.00000000000000004E-002  0.76000000000000045        1.0005453958330193     
  2.00000000000000004E-002  0.77000000000000046        1.0006055728735304     
  2.00000000000000004E-002  0.78000000000000047        1.0006767098689233     
  2.00000000000000004E-002  0.79000000000000048        1.0007613262811741     
  2.00000000000000004E-002  0.80000000000000049        1.0008626870454231     
  2.00000000000000004E-002  0.81000000000000050        1.0009850742041626     
  2.00000000000000004E-002  0.82000000000000051        1.0011341771190307     
  2.00000000000000004E-002  0.83000000000000052        1.0013176624389029     
  2.00000000000000004E-002  0.84000000000000052        1.0015460218905110     
  2.00000000000000004E-002  0.85000000000000053        1.0018338586062721     
  2.00000000000000004E-002  0.86000000000000054        1.0022018818212071     
  2.00000000000000004E-002  0.87000000000000055        1.0026800751277256     
  2.00000000000000004E-002  0.88000000000000056        1.0033128638040845     
  2.00000000000000004E-002  0.89000000000000057        1.0041677926970840     
  2.00000000000000004E-002  0.90000000000000058        1.0053505785378070     
  2.00000000000000004E-002  0.91000000000000059        1.0070322053369385     
  2.00000000000000004E-002  0.92000000000000060        1.0095001230108438     
  2.00000000000000004E-002  0.93000000000000060        1.0132619950536976     
  2.00000000000000004E-002  0.94000000000000061        1.0192692687332103     
  2.00000000000000004E-002  0.95000000000000062        1.0293350538858625     
  2.00000000000000004E-002  0.96000000000000063        1.0460591118813529     
  2.00000000000000004E-002  0.97000000000000064        1.0661708898318474     
  2.00000000000000004E-002  0.98000000000000065        1.0412658449489856     
  2.00000000000000004E-002  0.99000000000000066       0.73403319567578795     
  2.00000000000000004E-002   1.0000000000000007      -0.73403392782530896     
  
  2.99999999999999989E-002   0.0000000000000000      -0.57911121546186950     
  2.99999999999999989E-002  1.00000000000000002E-002  0.57911003973503128     
  2.99999999999999989E-002  2.00000000000000004E-002   1.0116571034260788     
  2.99999999999999989E-002  2.99999999999999989E-002   1.0958568879422030     
  2.99999999999999989E-002  4.00000000000000008E-002   1.0820954125837314     
  2.99999999999999989E-002  5.00000000000000028E-002   1.0571053167866962     
  2.99999999999999989E-002  6.00000000000000047E-002   1.0389113593741157     
  2.99999999999999989E-002  7.00000000000000067E-002   1.0272645006268757     
  2.99999999999999989E-002  8.00000000000000017E-002   1.0197655860079236     
  2.99999999999999989E-002  8.99999999999999967E-002   1.0147672242782524     
  2.99999999999999989E-002  9.99999999999999917E-002   1.0113190003673649     
  2.99999999999999989E-002  0.10999999999999999        1.0088687697156711     
  2.99999999999999989E-002  0.11999999999999998        1.0070828148424429     
  2.99999999999999989E-002  0.12999999999999998        1.0057518009626096     
  2.99999999999999989E-002  0.13999999999999999        1.0047402449693115     
  2.99999999999999989E-002  0.14999999999999999        1.0039580499172533     
  2.99999999999999989E-002  0.16000000000000000        1.0033438375254586     
  2.99999999999999989E-002  0.17000000000000001        1.0028548776682871     
  2.99999999999999989E-002  0.18000000000000002        1.0024608347412731     
  2.99999999999999989E-002  0.19000000000000003        1.0021397870176245     
  2.99999999999999989E-002  0.20000000000000004        1.0018756351686016     
  2.99999999999999989E-002  0.21000000000000005        1.0016563801384726     
  2.99999999999999989E-002  0.22000000000000006        1.0014729570036172     
  2.99999999999999989E-002  0.23000000000000007        1.0013184315584960     
  2.99999999999999989E-002  0.24000000000000007        1.0011874379294283     
  2.99999999999999989E-002  0.25000000000000006        1.0010757790880132     
  2.99999999999999989E-002  0.26000000000000006        1.0009801392052911     
  2.99999999999999989E-002  0.27000000000000007        1.0008978739217242     
  2.99999999999999989E-002  0.28000000000000008        1.0008268556427691     
  2.99999999999999989E-002  0.29000000000000009        1.0007653581920184     
  2.99999999999999989E-002  0.30000000000000010        1.0007119699525435     
  2.99999999999999989E-002  0.31000000000000011        1.0006655278605521     
  2.99999999999999989E-002  0.32000000000000012        1.0006250668232959     
  2.99999999999999989E-002  0.33000000000000013        1.0005897806593764     
  2.99999999999999989E-002  0.34000000000000014        1.0005589917270250     
  2.99999999999999989E-002  0.35000000000000014        1.0005321271606884     
  2.99999999999999989E-002  0.36000000000000015        1.0005087001755244     
  2.99999999999999989E-002  0.37000000000000016        1.0004882952885359     
  2.99999999999999989E-002  0.38000000000000017        1.0004705565884586     
  2.99999999999999989E-002  0.39000000000000018        1.0004551783948938     
  2.99999999999999989E-002  0.40000000000000019        1.0004418978015848     
  2.99999999999999989E-002  0.41000000000000020        1.0004304887143458     
  2.99999999999999989E-002  0.42000000000000021        1.0004207570812851     
  2.99999999999999989E-002  0.43000000000000022        1.0004125370793941     
  2.99999999999999989E-002  0.44000000000000022        1.0004056880725731     
  2.99999999999999989E-002  0.45000000000000023        1.0004000921958234     
  2.99999999999999989E-002  0.46000000000000024        1.0003956524514821     
  2.99999999999999989E-002  0.47000000000000025        1.0003922912281824     
  2.99999999999999989E-002  0.48000000000000026        1.0003899491733590     
  2.99999999999999989E-002  0.49000000000000027        1.0003885843666731     
  2.99999999999999989E-002  0.50000000000000022        1.0003881717558225     
  2.99999999999999989E-002  0.51000000000000023        1.0003887028283951     
  2.99999999999999989E-002  0.52000000000000024        1.0003901855044799     
  2.99999999999999989E-002  0.53000000000000025        1.0003926442450459     
  2.99999999999999989E-002  0.54000000000000026        1.0003961203812344     
  2.99999999999999989E-002  0.55000000000000027        1.0004006726800023     
  2.99999999999999989E-002  0.56000000000000028        1.0004063781725829     
  2.99999999999999989E-002  0.57000000000000028        1.0004133332844138     
  2.99999999999999989E-002  0.58000000000000029        1.0004216553192251     
  2.99999999999999989E-002  0.59000000000000030        1.0004314843665179     
  2.99999999999999989E-002  0.60000000000000031        1.0004429857217552     
  2.99999999999999989E-002  0.61000000000000032        1.0004563529333306     
  2.99999999999999989E-002  0.62000000000000033        1.0004718116215479     
  2.99999999999999989E-002  0.63000000000000034        1.0004896242543841     
  2.99999999999999989E-002  0.64000000000000035        1.0005100961158684     
  2.99999999999999989E-002  0.65000000000000036        1.0005335827692154     
  2.99999999999999989E-002  0.66000000000000036        1.0005604994040633     
  2.99999999999999989E-002  0.67000000000000037        1.0005913325726761     
  2.99999999999999989E-002  0.68000000000000038        1.0006266549744571     
  2.99999999999999989E-002  0.69000000000000039        1.0006671441564376     
  2.99999999999999989E-002  0.70000000000000040        1.0007136062808568     
  2.99999999999999989E-002  0.71000000000000041        1.0007670065000696     
  2.99999999999999989E-002  0.72000000000000042        1.0008285080183450     
  2.99999999999999989E-002  0.73000000000000043        1.0008995226749076     
  2.99999999999999989E-002  0.74000000000000044        1.0009817769500409     