 variables = "x", "y", "z"
 zone i=          81 , j=         301 , f=point
   0.0000000000000000        0.0000000000000000        0.0000000000000000     
   0.0000000000000000       1.25000000000000007E-002   0.0000000000000000     
   0.0000000000000000       2.50000000000000014E-002   0.0000000000000000     
   0.0000000000000000       3.75000000000000056E-002   0.0000000000000000     
   0.0000000000000000       5.00000000000000028E-002   0.0000000000000000     
   0.0000000000000000       6.25000000000000000E-002   0.0000000000000000     
   0.0000000000000000       7.49999999999999972E-002   0.0000000000000000     
   0.0000000000000000       8.74999999999999944E-002   0.0000000000000000     
   0.0000000000000000       9.99999999999999917E-002   0.0000000000000000     
   0.0000000000000000       0.11249999999999999        0.0000000000000000     
   0.0000000000000000       0.12499999999999999        0.0000000000000000     
   0.0000000000000000       0.13749999999999998        0.0000000000000000     
   0.0000000000000000       0.14999999999999999        0.0000000000000000     
   0.0000000000000000       0.16250000000000001        0.0000000000000000     
   0.0000000000000000       0.17500000000000002        0.0000000000000000     
   0.0000000000000000       0.18750000000000003        0.0000000000000000     
   0.0000000000000000       0.20000000000000004        0.0000000000000000     
   0.0000000000000000       0.21250000000000005        0.0000000000000000     
   0.0000000000000000       0.22500000000000006        0.0000000000000000     
   0.0000000000000000       0.23750000000000007        0.0000000000000000     
   0.0000000000000000       0.25000000000000006        0.0000000000000000     
   0.0000000000000000       0.26250000000000007        0.0000000000000000     
   0.0000000000000000       0.27500000000000008        0.0000000000000000     
   0.0000000000000000       0.28750000000000009        0.0000000000000000     
   0.0000000000000000       0.30000000000000010        0.0000000000000000     
   0.0000000000000000       0.31250000000000011        0.0000000000000000     
   0.0000000000000000       0.32500000000000012        0.0000000000000000     
   0.0000000000000000       0.33750000000000013        0.0000000000000000     
   0.0000000000000000       0.35000000000000014        0.0000000000000000     
   0.0000000000000000       0.36250000000000016        0.0000000000000000     
   0.0000000000000000       0.37500000000000017        0.0000000000000000     
   0.0000000000000000       0.38750000000000018        0.0000000000000000     
   0.0000000000000000       0.40000000000000019        0.0000000000000000     
   0.0000000000000000       0.41250000000000020        0.0000000000000000     
   0.0000000000000000       0.42500000000000021        0.0000000000000000     
   0.0000000000000000       0.43750000000000022        0.0000000000000000     
   0.0000000000000000       0.45000000000000023        0.0000000000000000     
   0.0000000000000000       0.46250000000000024        0.0000000000000000     
   0.0000000000000000       0.47500000000000026        0.0000000000000000     
   0.0000000000000000       0.48750000000000027        0.0000000000000000     
   0.0000000000000000       0.50000000000000022        0.0000000000000000     
   0.0000000000000000       0.51250000000000018        0.0000000000000000     
   0.0000000000000000       0.52500000000000013        0.0000000000000000     
   0.0000000000000000       0.53750000000000009        0.0000000000000000     
   0.0000000000000000       0.55000000000000004        0.0000000000000000     
   0.0000000000000000       0.56250000000000000        0.0000000000000000     
   0.0000000000000000       0.57499999999999996        0.0000000000000000     
   0.0000000000000000       0.58749999999999991        0.0000000000000000     
   0.0000000000000000       0.59999999999999987        0.0000000000000000     
   0.0000000000000000       0.61249999999999982        0.0000000000000000     
   0.0000000000000000       0.62499999999999978        0.0000000000000000     
   0.0000000000000000       0.63749999999999973        0.0000000000000000     
   0.0000000000000000       0.64999999999999969        0.0000000000000000     
   0.0000000000000000       0.66249999999999964        0.0000000000000000     
   0.0000000000000000       0.67499999999999960        0.0000000000000000     
   0.0000000000000000       0.68749999999999956        0.0000000000000000     
   0.0000000000000000       0.69999999999999951        0.0000000000000000     
   0.0000000000000000       0.71249999999999947        0.0000000000000000     
   0.0000000000000000       0.72499999999999942        0.0000000000000000     
   0.0000000000000000       0.73749999999999938        0.0000000000000000     
   0.0000000000000000       0.74999999999999933        0.0000000000000000     
   0.0000000000000000       0.76249999999999929        0.0000000000000000     
   0.0000000000000000       0.77499999999999925        0.0000000000000000     
   0.0000000000000000       0.78749999999999920        0.0000000000000000     
   0.0000000000000000       0.79999999999999916        0.0000000000000000     
   0.0000000000000000       0.81249999999999911        0.0000000000000000     
   0.0000000000000000       0.82499999999999907        0.0000000000000000     
   0.0000000000000000       0.83749999999999902        0.0000000000000000     
   0.0000000000000000       0.84999999999999898        0.0000000000000000     
   0.0000000000000000       0.86249999999999893        0.0000000000000000     
   0.0000000000000000       0.87499999999999889        0.0000000000000000     
   0.0000000000000000       0.88749999999999885        0.0000000000000000     
   0.0000000000000000       0.89999999999999880        0.0000000000000000     
   0.0000000000000000       0.91249999999999876        0.0000000000000000     
   0.0000000000000000       0.92499999999999871        0.0000000000000000     
   0.0000000000000000       0.93749999999999867        0.0000000000000000     
   0.0000000000000000       0.94999999999999862        0.0000000000000000     
   0.0000000000000000       0.96249999999999858        0.0000000000000000     
   0.0000000000000000       0.97499999999999853        0.0000000000000000     
   0.0000000000000000       0.98749999999999849        0.0000000000000000     
   0.0000000000000000       0.99999999999999845        0.0000000000000000     
  
  1.66666666666666664E-002   0.0000000000000000        0.0000000000000000     
  1.66666666666666664E-002  1.25000000000000007E-002   2.7418926599823696     
  1.66666666666666664E-002  2.50000000000000014E-002   2.0856474996670609     
  1.66666666666666664E-002  3.75000000000000056E-002   1.8071327872045282     
  1.66666666666666664E-002  5.00000000000000028E-002   1.6533796509819569     
  1.66666666666666664E-002  6.25000000000000000E-002   1.5512976546794199     
  1.66666666666666664E-002  7.49999999999999972E-002   1.4778405701232167     
  1.66666666666666664E-002  8.74999999999999944E-002   1.4229353828546720     
  1.66666666666666664E-002  9.99999999999999917E-002   1.3809655643031460     
  1.66666666666666664E-002  0.11249999999999999        1.3483906977758597     
  1.66666666666666664E-002  0.12499999999999999        1.3228411447427713     
  1.66666666666666664E-002  0.13749999999999998        1.3026723031099179     
  1.66666666666666664E-002  0.14999999999999999        1.2867103665783057     
  1.66666666666666664E-002  0.16250000000000001        1.2740977220140242     
  1.66666666666666664E-002  0.17500000000000002        1.2641965044656287     
  1.66666666666666664E-002  0.18750000000000003        1.2565270626704275     
  1.66666666666666664E-002  0.20000000000000004        1.2507270687354253     
  1.66666666666666664E-002  0.21250000000000005        1.2465229700969538     
  1.66666666666666664E-002  0.22500000000000006        1.2437095932511553     
  1.66666666666666664E-002  0.23750000000000007        1.2421359367241125     
  1.66666666666666664E-002  0.25000000000000006        1.2416961441316399     
  1.66666666666666664E-002  0.26250000000000007        1.2423251571453151     
  1.66666666666666664E-002  0.27500000000000008        1.2439985783781182     
  1.66666666666666664E-002  0.28750000000000009        1.2467356173047626     
  1.66666666666666664E-002  0.30000000000000010        1.2506035572317837     
  1.66666666666666664E-002  0.31250000000000011        1.2557230919176701     
  1.66666666666666664E-002  0.32500000000000012        1.2622757867083507     
  1.66666666666666664E-002  0.33750000000000013        1.2705157933221005     
  1.66666666666666664E-002  0.35000000000000014        1.2807845599911420     
  1.66666666666666664E-002  0.36250000000000016        1.2935271863297830     
  1.66666666666666664E-002  0.37500000000000017        1.3093293940274127     
  1.66666666666666664E-002  0.38750000000000018        1.3289956503091296     
  1.66666666666666664E-002  0.40000000000000019        1.3536491564751043     
  1.66666666666666664E-002  0.41250000000000020        1.3848693451409768     
  1.66666666666666664E-002  0.42500000000000021        1.4249530901896927     
  1.66666666666666664E-002  0.43750000000000022        1.4774892891183304     
  1.66666666666666664E-002  0.45000000000000023        1.5487351240499252     
  1.66666666666666664E-002  0.46250000000000024        1.6521763295441834     
  1.66666666666666664E-002  0.47500000000000026        1.8266993471848301     
  1.66666666666666664E-002  0.48750000000000027        2.2023380516308775     
  1.66666666666666664E-002  0.50000000000000022        2.0437053587197616     
  1.66666666666666664E-002  0.51250000000000018       0.65129056756433445     
  1.66666666666666664E-002  0.52500000000000013       0.20892597787323292     
  1.66666666666666664E-002  0.53750000000000009       6.73971779862712478E-002
  1.66666666666666664E-002  0.55000000000000004       2.18467933065879839E-002
  1.66666666666666664E-002  0.56250000000000000       7.11194796213921506E-003
  1.66666666666666664E-002  0.57499999999999996       2.32425531244325519E-003
  1.66666666666666664E-002  0.58749999999999991       7.62390068027734105E-004
  1.66666666666666664E-002  0.59999999999999987       2.50967435374947789E-004
  1.66666666666666664E-002  0.61249999999999982       8.29045214540106317E-005
  1.66666666666666664E-002  0.62499999999999978       2.74815325140170569E-005
  1.66666666666666664E-002  0.63749999999999973       9.14067959061514526E-006
  1.66666666666666664E-002  0.64999999999999969       3.05030711988904401E-006
  1.66666666666666664E-002  0.66249999999999964       1.02108293468085206E-006
  1.66666666666666664E-002  0.67499999999999960       3.42787038546110427E-007
  1.66666666666666664E-002  0.68749999999999956       1.15371023000061766E-007
  1.66666666666666664E-002  0.69999999999999951       3.89147997236682500E-008
  1.66666666666666664E-002  0.71249999999999947       1.31490864341114497E-008
  1.66666666666666664E-002  0.72499999999999942       4.44881509980860244E-009
  1.66666666666666664E-002  0.73749999999999938       1.50647840396510915E-009
  1.66666666666666664E-002  0.74999999999999933       5.10337230437288393E-010
  1.66666666666666664E-002  0.76249999999999929       1.72879782279825526E-010
  1.66666666666666664E-002  0.77499999999999925       5.85405178800184222E-011
  1.66666666666666664E-002  0.78749999999999920       1.98082764655516184E-011
  1.66666666666666664E-002  0.79999999999999916       6.69558862572006614E-012
  1.66666666666666664E-002  0.81249999999999911       2.26037094672996575E-012
  1.66666666666666664E-002  0.82499999999999907       7.61972384490812351E-013
  1.66666666666666664E-002  0.83749999999999902       2.56453706083810814E-013
  1.66666666666666664E-002  0.84999999999999898       8.61690565103359236E-014
  1.66666666666666664E-002  0.86249999999999893       2.89033228076707730E-014
  1.66666666666666664E-002  0.87499999999999889       9.67825426991565327E-015
  1.66666666666666664E-002  0.88749999999999885       3.23528997774455888E-015
  1.66666666666666664E-002  0.89999999999999880       1.07975169613759278E-015
  1.66666666666666664E-002  0.91249999999999876       3.59805948178813934E-016
  1.66666666666666664E-002  0.92499999999999871       1.19728334359117769E-016
  1.66666666666666664E-002  0.93749999999999867       3.97906482183417838E-017
  1.66666666666666664E-002  0.94999999999999862       1.32134261304753971E-017
  1.66666666666666664E-002  0.96249999999999858       4.39710809942214770E-018
  1.66666666666666664E-002  0.97499999999999853       1.50343233353733814E-018
  1.66666666666666664E-002  0.98749999999999849       6.39206010882613708E-019
  1.66666666666666664E-002  0.99999999999999845        0.0000000000000000     
  
  3.33333333333333329E-002   0.0000000000000000        0.0000000000000000     
  3.33333333333333329E-002  1.25000000000000007E-002   1.7719587384609983     
  3.33333333333333329E-002  2.50000000000000014E-002   1.7235706445208816     
  3.33333333333333329E-002  3.75000000000000056E-002   1.6374410715138488     
  3.33333333333333329E-002  5.00000000000000028E-002   1.5597889011395965     
  3.33333333333333329E-002  6.25000000000000000E-002   1.4953601743448872     
  3.33333333333333329E-002  7.49999999999999972E-002   1.4426897419130151     
  3.33333333333333329E-002  8.74999999999999944E-002   1.3999357463864965     
  3.33333333333333329E-002  9.99999999999999917E-002   1.3653799332900791     
  3.33333333333333329E-002  0.11249999999999999        1.3375032034608851     
  3.33333333333333329E-002  0.12499999999999999        1.3150335500997565     
  3.33333333333333329E-002  0.13749999999999998        1.2969446670769369     
  3.33333333333333329E-002  0.14999999999999999        1.2824231676688600     
  3.33333333333333329E-002  0.16250000000000001        1.2708283934420488     
  3.33333333333333329E-002  0.17500000000000002        1.2616568947102782     
  3.33333333333333329E-002  0.18750000000000003        1.2545143035567192     
  3.33333333333333329E-002  0.20000000000000004        1.2490933700709528     
  3.33333333333333329E-002  0.21250000000000005        1.2451565514858394     
  3.33333333333333329E-002  0.22500000000000006        1.2425223349309427     
  3.33333333333333329E-002  0.23750000000000007        1.2410550298233733     
  3.33333333333333329E-002  0.25000000000000006        1.2406580460208381     
  3.33333333333333329E-002  0.26250000000000007        1.2412708430899155     
  3.33333333333333329E-002  0.27500000000000008        1.2428693783878098     
  3.33333333333333329E-002  0.28750000000000009        1.2454689770278677     
  3.33333333333333329E-002  0.30000000000000010        1.2491281631506248     
  3.33333333333333329E-002  0.31250000000000011        1.2539529366046538     
  3.33333333333333329E-002  0.32500000000000012        1.2601025229154466     
  3.33333333333333329E-002  0.33750000000000013        1.2677972689770398     
  3.33333333333333329E-002  0.35000000000000014        1.2773258714711597     
  3.33333333333333329E-002  0.36250000000000016        1.2890533112035065     
  3.33333333333333329E-002  0.37500000000000017        1.3034453549047402     
  3.33333333333333329E-002  0.38750000000000018        1.3211109149445144     
  3.33333333333333329E-002  0.40000000000000019        1.3428395334497196     
  3.33333333333333329E-002  0.41250000000000020        1.3696338733856221     
  3.33333333333333329E-002  0.42500000000000021        1.4027580722042319     
  3.33333333333333329E-002  0.43750000000000022        1.4438098676152100     
  3.33333333333333329E-002  0.45000000000000023        1.4947626550594639     
  3.33333333333333329E-002  0.46250000000000024        1.5577655238199861     
  3.33333333333333329E-002  0.47500000000000026        1.6318846459133183     
  3.33333333333333329E-002  0.48750000000000027        1.6924178140889048     
  3.33333333333333329E-002  0.50000000000000022        1.5706560744033362     
  3.33333333333333329E-002  0.51250000000000018       0.53046448904533650     
  3.33333333333333329E-002  0.52500000000000013       0.17739471817537139     
  3.33333333333333329E-002  0.53750000000000009       5.89838083355634160E-002
  3.33333333333333329E-002  0.55000000000000004       1.95500854894771307E-002
  3.33333333333333329E-002  0.56250000000000000       6.47008381649486018E-003
  3.33333333333333329E-002  0.57499999999999996       2.14044178139646433E-003
  3.33333333333333329E-002  0.58749999999999991       7.08390078047496348E-004
  3.33333333333333329E-002  0.59999999999999987       2.34676216935653131E-004
  3.33333333333333329E-002  0.61249999999999982       7.78544242528996064E-005
  3.33333333333333329E-002  0.62499999999999978       2.58737005559778467E-005
  3.33333333333333329E-002  0.63749999999999973       8.61586194640897015E-006
  3.33333333333333329E-002  0.64999999999999969       2.87521858701524638E-006
  3.33333333333333329E-002  0.66249999999999964       9.61625128525291636E-007
  3.33333333333333329E-002  0.67499999999999960       3.22328513785845465E-007
  3.33333333333333329E-002  0.68749999999999956       1.08270592659442512E-007
  3.33333333333333329E-002  0.69999999999999951       3.64393377136825762E-008
  3.33333333333333329E-002  0.71249999999999947       1.22851520657274399E-008
  3.33333333333333329E-002  0.72499999999999942       4.14782735494151300E-009
  3.33333333333333329E-002  0.73749999999999938       1.40202292912426648E-009
  3.33333333333333329E-002  0.74999999999999933       4.74284433326272871E-010
  3.33333333333333329E-002  0.76249999999999929       1.60518091121833618E-010
  3.33333333333333329E-002  0.77499999999999925       5.43331952733777228E-011
  3.33333333333333329E-002  0.78749999999999920       1.83875964136537979E-011
  3.33333333333333329E-002  0.79999999999999916       6.21980492452119513E-012
  3.33333333333333329E-002  0.81249999999999911       2.10236606211250487E-012
  3.33333333333333329E-002  0.82499999999999907       7.09942557005961759E-013
  3.33333333333333329E-002  0.83749999999999902       2.39464797973253025E-013
  3.33333333333333329E-002  0.84999999999999898       8.06679537694815032E-014
  3.33333333333333329E-002  0.86249999999999893       2.71365896246438635E-014
  3.33333333333333329E-002  0.87499999999999889       9.11536960107911806E-015
  3.33333333333333329E-002  0.88749999999999885       3.05733441060526725E-015
  3.33333333333333329E-002  0.89999999999999880       1.02390543183992768E-015
  3.33333333333333329E-002  0.91249999999999876       3.42401881648464400E-016
  3.33333333333333329E-002  0.92499999999999871       1.14339282328678769E-016
  3.33333333333333329E-002  0.93749999999999867       3.81315298289630967E-017
  3.33333333333333329E-002  0.94999999999999862       1.27050487473131524E-017
  3.33333333333333329E-002  0.96249999999999858       4.24167971618455034E-018
  3.33333333333333329E-002  0.97499999999999853       1.45526290273617214E-018
  3.33333333333333329E-002  0.98749999999999849       6.21443346885401622E-019
  3.33333333333333329E-002  0.99999999999999845        0.0000000000000000     
  
  5.00000000000000028E-002   0.0000000000000000        0.0000000000000000     
  5.00000000000000028E-002  1.25000000000000007E-002   1.4022319077970822     
  5.00000000000000028E-002  2.50000000000000014E-002   1.4529134580341696     
  5.00000000000000028E-002  3.75000000000000056E-002   1.4562022503890659     
  5.00000000000000028E-002  5.00000000000000028E-002   1.4389441078966347     
  5.00000000000000028E-002  6.25000000000000000E-002   1.4136307156839119     
  5.00000000000000028E-002  7.49999999999999972E-002   1.3864315836291401     
  5.00000000000000028E-002  8.74999999999999944E-002   1.3604053988158946     
  5.00000000000000028E-002  9.99999999999999917E-002   1.3369582272935938     
  5.00000000000000028E-002  0.11249999999999999        1.3165771229274836     
  5.00000000000000028E-002  0.12499999999999999        1.2992631316422920     
  5.00000000000000028E-002  0.13749999999999998        1.2847908049859968     
  5.00000000000000028E-002  0.14999999999999999        1.2728520315964686     
  5.00000000000000028E-002  0.16250000000000001        1.2631288404292216     
  5.00000000000000028E-002  0.17500000000000002        1.2553272554339854     
  5.00000000000000028E-002  0.18750000000000003        1.2491910776855657     
  5.00000000000000028E-002  0.20000000000000004        1.2445053504724524     
  5.00000000000000028E-002  0.21250000000000005        1.2410946569833003     
  5.00000000000000028E-002  0.22500000000000006        1.2388192762646084     
  5.00000000000000028E-002  0.23750000000000007        1.2375710467133512     
  5.00000000000000028E-002  0.25000000000000006        1.2372702624198164     
  5.00000000000000028E-002  0.26250000000000007        1.2378646974718324     
  5.00000000000000028E-002  0.27500000000000008        1.2393310746793744     
  5.00000000000000028E-002  0.28750000000000009        1.2416780148142958     
  5.00000000000000028E-002  0.30000000000000010        1.2449489958957947     
  5.00000000000000028E-002  0.31250000000000011        1.2492247967564836     
  5.00000000000000028E-002  0.32500000000000012        1.2546260859685345     
  5.00000000000000028E-002  0.33750000000000013        1.2613154939900197     
  5.00000000000000028E-002  0.35000000000000014        1.2694955151051697     
  5.00000000000000028E-002  0.36250000000000016        1.2794041510451786     
  5.00000000000000028E-002  0.37500000000000017        1.2913176544418805     
  5.00000000000000028E-002  0.38750000000000018        1.3055511815689480     
  5.00000000000000028E-002  0.40000000000000019        1.3224323038368158     
  5.00000000000000028E-002  0.41250000000000020        1.3422306335984429     
  5.00000000000000028E-002  0.42500000000000021        1.3650453297729095     
  5.00000000000000028E-002  0.43750000000000022        1.3905922172227032     
  5.00000000000000028E-002  0.45000000000000023        1.4177676221701700     
  5.00000000000000028E-002  0.46250000000000024        1.4436809064752383     
  5.00000000000000028E-002  0.47500000000000026        1.4611249441794336     
  5.00000000000000028E-002  0.48750000000000027        1.4525849890329896     
  5.00000000000000028E-002  0.50000000000000022        1.3734976050534924     
  5.00000000000000028E-002  0.51250000000000018       0.46131686387300286     
  5.00000000000000028E-002  0.52500000000000013       0.15464704399569654     
  5.00000000000000028E-002  0.53750000000000009       5.17427106962380159E-002
  5.00000000000000028E-002  0.55000000000000004       1.72843843106763144E-002
  5.00000000000000028E-002  0.56250000000000000       5.76688569659954478E-003
  5.00000000000000028E-002  0.57499999999999996       1.92269262636910712E-003
  5.00000000000000028E-002  0.58749999999999991       6.40843063716980358E-004
  5.00000000000000028E-002  0.59999999999999987       2.13621069688076917E-004
  5.00000000000000028E-002  0.61249999999999982       7.12434703419771801E-005
  5.00000000000000028E-002  0.62499999999999978       2.37788506260761903E-005
  5.00000000000000028E-002  0.63749999999999973       7.94500116468964802E-006
  5.00000000000000028E-002  0.64999999999999969       2.65791753349870925E-006
  5.00000000000000028E-002  0.66249999999999964       8.90417953140533236E-007
  5.00000000000000028E-002  0.67499999999999960       2.98733725727987167E-007
  5.00000000000000028E-002  0.68749999999999956       1.00373346425290577E-007
  5.00000000000000028E-002  0.69999999999999951       3.37735059459441538E-008
  5.00000000000000028E-002  0.71249999999999947       1.13792432106684200E-008
  5.00000000000000028E-002  0.72499999999999942       3.83853234497895113E-009
  5.00000000000000028E-002  0.73749999999999938       1.29613352983000317E-009
  5.00000000000000028E-002  0.74999999999999933       4.37998310616042768E-010
  5.00000000000000028E-002  0.76249999999999929       1.48091612085054073E-010
  5.00000000000000028E-002  0.77499999999999925       5.00860867870700632E-011
  5.00000000000000028E-002  0.78749999999999920       1.69404808527790132E-011
  5.00000000000000028E-002  0.79999999999999916       5.72866368458283252E-012
  5.00000000000000028E-002  0.81249999999999911       1.93643688437446695E-012
  5.00000000000000028E-002  0.82499999999999907       6.54166073054315986E-013
  5.00000000000000028E-002  0.83749999999999902       2.20815707440856907E-013
  5.00000000000000028E-002  0.84999999999999898       7.44669014934171795E-014
  5.00000000000000028E-002  0.86249999999999893       2.50861559874651845E-014
  5.00000000000000028E-002  0.87499999999999889       8.44113414914968289E-015
  5.00000000000000028E-002  0.88749999999999885       2.83683240118902751E-015
  5.00000000000000028E-002  0.89999999999999880       9.52170377325977659E-016
  5.00000000000000028E-002  0.91249999999999876       3.19180801305889509E-016
  5.00000000000000028E-002  0.92499999999999871       1.06857394569742925E-016
  5.00000000000000028E-002  0.93749999999999867       3.57310233993380626E-017
  5.00000000000000028E-002  0.94999999999999862       1.19375947488396636E-017
  5.00000000000000028E-002  0.96249999999999858       3.99658633986392679E-018
  5.00000000000000028E-002  0.97499999999999853       1.37549401545310428E-018
  5.00000000000000028E-002  0.98749999999999849       5.89771352590779101E-019
  5.00000000000000028E-002  0.99999999999999845        0.0000000000000000     
  
  6.66666666666666657E-002   0.0000000000000000        0.0000000000000000     
  6.66666666666666657E-002  1.25000000000000007E-002   1.2534724453774246     
  6.66666666666666657E-002  2.50000000000000014E-002   1.3034526267840079     
  6.66666666666666657E-002  3.75000000000000056E-002   1.3277555066387636     
  6.66666666666666657E-002  5.00000000000000028E-002   1.3360822618869153     
  6.66666666666666657E-002  6.25000000000000000E-002   1.3340804155201720     
  6.66666666666666657E-002  7.49999999999999972E-002   1.3258362905058700     
  6.66666666666666657E-002  8.74999999999999944E-002   1.3143749365025086     
  6.66666666666666657E-002  9.99999999999999917E-002   1.3017900528866466     
  6.66666666666666657E-002  0.11249999999999999        1.2894015349967656     
  6.66666666666666657E-002  0.12499999999999999        1.2779530147206082     
  6.66666666666666657E-002  0.13749999999999998        1.2678011796445727     
  6.66666666666666657E-002  0.14999999999999999        1.2590653613510832     
  6.66666666666666657E-002  0.16250000000000001        1.2517316020237137     
  6.66666666666666657E-002  0.17500000000000002        1.2457193517035683     
  6.66666666666666657E-002  0.18750000000000003        1.2409216648822934     
  6.66666666666666657E-002  0.20000000000000004        1.2372278720331324     
  6.66666666666666657E-002  0.21250000000000005        1.2345353024529750     
  6.66666666666666657E-002  0.22500000000000006        1.2327545766914212     
  6.66666666666666657E-002  0.23750000000000007        1.2318114255353807     
  6.66666666666666657E-002  0.25000000000000006        1.2316472798919529     
  6.66666666666666657E-002  0.26250000000000007        1.2322205031947917     
  6.66666666666666657E-002  0.27500000000000008        1.2335090091118102     
  6.66666666666666657E-002  0.28750000000000009        1.2355133487885146     
  6.66666666666666657E-002  0.30000000000000010        1.2382587384759298     
  6.66666666666666657E-002  0.31250000000000011        1.2417955058562633     
  6.66666666666666657E-002  0.32500000000000012        1.2461983555956258     
  6.66666666666666657E-002  0.33750000000000013        1.2515629256090237     
  6.66666666666666657E-002  0.35000000000000014        1.2579956969595190     
  6.66666666666666657E-002  0.36250000000000016        1.2655993693863690     
  6.66666666666666657E-002  0.37500000000000017        1.2744594134036700     
  6.66666666666666657E-002  0.38750000000000018        1.2846205550924370     
  6.66666666666666657E-002  0.40000000000000019        1.2960333388862875     
  6.66666666666666657E-002  0.41250000000000020        1.3084603350447923     
  6.66666666666666657E-002  0.42500000000000021        1.3213649591541714     
  6.66666666666666657E-002  0.43750000000000022        1.3337523269807063     
  6.66666666666666657E-002  0.45000000000000023        1.3439495354613933     
  6.66666666666666657E-002  0.46250000000000024        1.3492763445243154     
  6.66666666666666657E-002  0.47500000000000026        1.3452911084255461     
  6.66666666666666657E-002  0.48750000000000027        1.3240713184180744     
  6.66666666666666657E-002  0.50000000000000022        1.2729797433353904     
  6.66666666666666657E-002  0.51250000000000018       0.42437777396911380     
  6.66666666666666657E-002  0.52500000000000013       0.14149550699370284     
  6.66666666666666657E-002  0.53750000000000009       4.71866247287281715E-002
  6.66666666666666657E-002  0.55000000000000004       1.57392387638181398E-002
  6.66666666666666657E-002  0.56250000000000000       5.25104323354711952E-003
  6.66666666666666657E-002  0.57499999999999996       1.75238355621425124E-003
  6.66666666666666657E-002  0.58749999999999991       5.85025910501318414E-004
  6.66666666666666657E-002  0.59999999999999987       1.95404993327069891E-004
  6.66666666666666657E-002  0.61249999999999982       6.53083825758128049E-005
  6.66666666666666657E-002  0.62499999999999978       2.18440422375543214E-005
  6.66666666666666657E-002  0.63749999999999973       7.31275112914307378E-006
  6.66666666666666657E-002  0.64999999999999969       2.45050563934977072E-006
  6.66666666666666657E-002  0.66249999999999964       8.22031494482779586E-007