 variables = "x", "y", "psi", "blank"
 zone i=          81 , j=         405 , f=point
   0.0000000000000000        0.0000000000000000        0.0000000000000000        1.0000000    
   0.0000000000000000       1.25000000000000007E-002 -1.91545788946197969E-002   1.0000000    
   0.0000000000000000       2.50000000000000014E-002 -3.18384646730285673E-002   1.0000000    
   0.0000000000000000       3.75000000000000056E-002 -4.39074597414616519E-002   1.0000000    
   0.0000000000000000       5.00000000000000028E-002 -5.60547329850730955E-002   1.0000000    
   0.0000000000000000       6.25000000000000000E-002 -6.83202446082868398E-002   1.0000000    
   0.0000000000000000       7.49999999999999972E-002 -8.06678171105537078E-002   1.0000000    
   0.0000000000000000       8.74999999999999944E-002 -9.30667008375812288E-002   1.0000000    
   0.0000000000000000       9.99999999999999917E-002 -0.10549747464043091        1.0000000    
   0.0000000000000000       0.11249999999999999      -0.11794847473820157        1.0000000    
   0.0000000000000000       0.12499999999999999      -0.13041266580939948        1.0000000    
   0.0000000000000000       0.13749999999999998      -0.14288571727011826        1.0000000    
   0.0000000000000000       0.14999999999999999      -0.15536489517585766        1.0000000    
   0.0000000000000000       0.16250000000000001      -0.16784842687847115        1.0000000    
   0.0000000000000000       0.17500000000000002      -0.18033513198183226        1.0000000    
   0.0000000000000000       0.18750000000000003      -0.19282420389893548        1.0000000    
   0.0000000000000000       0.20000000000000004      -0.20531507779384142        1.0000000    
   0.0000000000000000       0.21250000000000005      -0.21780734896678419        1.0000000    
   0.0000000000000000       0.22500000000000006      -0.23030072127342791        1.0000000    
   0.0000000000000000       0.23750000000000007      -0.24279497379157858        1.0000000    
   0.0000000000000000       0.25000000000000006      -0.25528993880394607        1.0000000    
   0.0000000000000000       0.26250000000000007      -0.26778548694401366        1.0000000    
   0.0000000000000000       0.27500000000000008      -0.28028151696937792        1.0000000    
   0.0000000000000000       0.28750000000000009      -0.29277794858478579        1.0000000    
   0.0000000000000000       0.30000000000000010      -0.30527471731425304        1.0000000    
   0.0000000000000000       0.31250000000000011      -0.31777177077549712        1.0000000    
   0.0000000000000000       0.32500000000000012      -0.33026906593090061        1.0000000    
   0.0000000000000000       0.33750000000000013      -0.34276656703004804        1.0000000    
   0.0000000000000000       0.35000000000000014      -0.35526424405042423        1.0000000    
   0.0000000000000000       0.36250000000000016      -0.36776207150315887        1.0000000    
   0.0000000000000000       0.37500000000000017      -0.38026002751046606        1.0000000    
   0.0000000000000000       0.38750000000000018      -0.39275809308751497        1.0000000    
   0.0000000000000000       0.40000000000000019      -0.40525625157881034        1.0000000    
   0.0000000000000000       0.41250000000000020      -0.41775448821137373        1.0000000    
   0.0000000000000000       0.42500000000000021      -0.43025278973628261        1.0000000    
   0.0000000000000000       0.43750000000000022      -0.44275114413725775        1.0000000    
   0.0000000000000000       0.45000000000000023      -0.45524954039001608        1.0000000    
   0.0000000000000000       0.46250000000000024      -0.46774796825918752        1.0000000    
   0.0000000000000000       0.47500000000000026      -0.48024641812143498        1.0000000    
   0.0000000000000000       0.48750000000000027      -0.49274488080496215        1.0000000    
   0.0000000000000000       0.50000000000000022      -0.50524334743733823        1.0000000    
   0.0000000000000000       0.51250000000000018      -0.51774180929531777        1.0000000    
   0.0000000000000000       0.52500000000000013      -0.53024025765157656        1.0000000    
   0.0000000000000000       0.53750000000000009      -0.54273868361378230        1.0000000    
   0.0000000000000000       0.55000000000000004      -0.55523707795136912        1.0000000    
   0.0000000000000000       0.56250000000000000      -0.56773543090506973        1.0000000    
   0.0000000000000000       0.57499999999999996      -0.58023373197367700        1.0000000    
   0.0000000000000000       0.58749999999999991      -0.59273196967141950        1.0000000    
   0.0000000000000000       0.59999999999999987      -0.60523013124760716        1.0000000    
   0.0000000000000000       0.61249999999999982      -0.61772820235783332        1.0000000    
   0.0000000000000000       0.62499999999999978      -0.63022616667281006        1.0000000    
   0.0000000000000000       0.63749999999999973      -0.64272400540617725        1.0000000    
   0.0000000000000000       0.64999999999999969      -0.65522169673550912        1.0000000    
   0.0000000000000000       0.66249999999999964      -0.66771921508060439        1.0000000    
   0.0000000000000000       0.67499999999999960      -0.68021653018934503        1.0000000    
   0.0000000000000000       0.68749999999999956      -0.69271360596242781        1.0000000    
   0.0000000000000000       0.69999999999999951      -0.70521039892114123        1.0000000    
   0.0000000000000000       0.71249999999999947      -0.71770685618246166        1.0000000    
   0.0000000000000000       0.72499999999999942      -0.73020291274604177        1.0000000    
   0.0000000000000000       0.73749999999999938      -0.74269848780661729        1.0000000    
   0.0000000000000000       0.74999999999999933      -0.75519347966400363        1.0000000    
   0.0000000000000000       0.76249999999999929      -0.76768775858061900        1.0000000    
   0.0000000000000000       0.77499999999999925      -0.78018115658226617        1.0000000    
   0.0000000000000000       0.78749999999999920      -0.79267345262223654        1.0000000    
   0.0000000000000000       0.79999999999999916      -0.80516435057302105        1.0000000    
   0.0000000000000000       0.81249999999999911      -0.81765344589350331        1.0000000    
   0.0000000000000000       0.82499999999999907      -0.83014017404106588        1.0000000    
   0.0000000000000000       0.83749999999999902      -0.84262372884349823        1.0000000    
   0.0000000000000000       0.84999999999999898      -0.85510293042517682        1.0000000    
   0.0000000000000000       0.86249999999999893      -0.86757600675241009        1.0000000    
   0.0000000000000000       0.87499999999999889      -0.88004022459253728        1.0000000    
   0.0000000000000000       0.88749999999999885      -0.89249125420328845        1.0000000    
   0.0000000000000000       0.89999999999999880      -0.90492206130612629        1.0000000    
   0.0000000000000000       0.91249999999999876      -0.91732098348088398        1.0000000    
   0.0000000000000000       0.92499999999999871      -0.92966860142860752        1.0000000    
   0.0000000000000000       0.93749999999999867      -0.94193416809199748        1.0000000    
   0.0000000000000000       0.94999999999999862      -0.95408150964339233        1.0000000    
   0.0000000000000000       0.96249999999999858      -0.96615059034288275        1.0000000    
   0.0000000000000000       0.97499999999999853      -0.97883457528732543        1.0000000    
   0.0000000000000000       0.98749999999999849      -0.99798920572485073        1.0000000    
   0.0000000000000000       0.99999999999999845       -1.0104892057248507        1.0000000    

  1.23762376237623768E-002   0.0000000000000000        0.0000000000000000        1.0000000    
  1.23762376237623768E-002  1.25000000000000007E-002 -5.84542070566592634E-003   1.0000000    
  1.23762376237623768E-002  2.50000000000000014E-002 -1.81615345465526573E-002   1.0000000    
  1.23762376237623768E-002  3.75000000000000056E-002 -3.10925392559901863E-002   1.0000000    
  1.23762376237623768E-002  5.00000000000000028E-002 -4.39452659472820140E-002   1.0000000    
  1.23762376237623768E-002  6.25000000000000000E-002 -5.66797544784809273E-002   1.0000000    
  1.23762376237623768E-002  7.49999999999999972E-002 -6.93321823794409431E-002   1.0000000    
  1.23762376237623768E-002  8.74999999999999944E-002 -8.19332993017070355E-002   1.0000000    
  1.23762376237623768E-002  9.99999999999999917E-002 -9.45025263698978102E-002   1.0000000    
  1.23762376237623768E-002  0.11249999999999999      -0.10705152732592174        1.0000000    
  1.23762376237623768E-002  0.12499999999999999      -0.11958733744251940        1.0000000    
  1.23762376237623768E-002  0.13749999999999998      -0.13211428724939384        1.0000000    
  1.23762376237623768E-002  0.14999999999999999      -0.14463511063602427        1.0000000    
  1.23762376237623768E-002  0.16250000000000001      -0.15715158019946332        1.0000000    
  1.23762376237623768E-002  0.17500000000000002      -0.16966487629265059        1.0000000    
  1.23762376237623768E-002  0.18750000000000003      -0.18217580546987694        1.0000000    
  1.23762376237623768E-002  0.20000000000000004      -0.19468493254589134        1.0000000    
  1.23762376237623768E-002  0.21250000000000005      -0.20719266221058460        1.0000000    
  1.23762376237623768E-002  0.22500000000000006      -0.21969929060854063        1.0000000    
  1.23762376237623768E-002  0.23750000000000007      -0.23220503867029738        1.0000000    
  1.23762376237623768E-002  0.25000000000000006      -0.24471007412681497        1.0000000    
  1.23762376237623768E-002  0.26250000000000007      -0.25721452636030051        1.0000000    
  1.23762376237623768E-002  0.27500000000000008      -0.26971849662746999        1.0000000    
  1.23762376237623768E-002  0.28750000000000009      -0.28222206523367233        1.0000000    
  1.23762376237623768E-002  0.30000000000000010      -0.29472529665916397        1.0000000    
  1.23762376237623768E-002  0.31250000000000011      -0.30722824328471660        1.0000000    
  1.23762376237623768E-002  0.32500000000000012      -0.31973094814226655        1.0000000    
  1.23762376237623768E-002  0.33750000000000013      -0.33223344697499779        1.0000000    
  1.23762376237623768E-002  0.35000000000000014      -0.34473576979950210        1.0000000    
  1.23762376237623768E-002  0.36250000000000016      -0.35723794210257348        1.0000000    
  1.23762376237623768E-002  0.37500000000000017      -0.36973998576586031        1.0000000    
  1.23762376237623768E-002  0.38750000000000018      -0.38224191978577449        1.0000000    
  1.23762376237623768E-002  0.40000000000000019      -0.39474376083856988        1.0000000    
  1.23762376237623768E-002  0.41250000000000020      -0.40724552372789863        1.0000000    
  1.23762376237623768E-002  0.42500000000000021      -0.41974722174266893        1.0000000    
  1.23762376237623768E-002  0.43750000000000022      -0.43224886694613851        1.0000000    
  1.23762376237623768E-002  0.45000000000000023      -0.44475047041271337        1.0000000    
  1.23762376237623768E-002  0.46250000000000024      -0.45725204242630746        1.0000000    
  1.23762376237623768E-002  0.47500000000000026      -0.46975359265235450        1.0000000    
  1.23762376237623768E-002  0.48750000000000027      -0.48225513029379752        1.0000000    
  1.23762376237623768E-002  0.50000000000000022      -0.49475666423942760        1.0000000    
  1.23762376237623768E-002  0.51250000000000018      -0.50725820321118065        1.0000000    
  1.23762376237623768E-002  0.52500000000000013      -0.51975975591583212        1.0000000    
  1.23762376237623768E-002  0.53750000000000009      -0.53226133120598396        1.0000000    
  1.23762376237623768E-002  0.55000000000000004      -0.54476293825508193        1.0000000    
  1.23762376237623768E-002  0.56250000000000000      -0.55726458675131496        1.0000000    
  1.23762376237623768E-002  0.57499999999999996      -0.56976628711574184        1.0000000    
  1.23762376237623768E-002  0.58749999999999991      -0.58226805075098553        1.0000000    
  1.23762376237623768E-002  0.59999999999999987      -0.59476989032833094        1.0000000    
  1.23762376237623768E-002  0.61249999999999982      -0.60727182012314440        1.0000000    
  1.23762376237623768E-002  0.62499999999999978      -0.61977385641171390        1.0000000    
  1.23762376237623768E-002  0.63749999999999973      -0.63227601794765798        1.0000000    
  1.23762376237623768E-002  0.64999999999999969      -0.64477832654353984        1.0000000    
  1.23762376237623768E-002  0.66249999999999964      -0.65728080779359022        1.0000000    
  1.23762376237623768E-002  0.67499999999999960      -0.66978349198718323        1.0000000    
  1.23762376237623768E-002  0.68749999999999956      -0.68228641528170186        1.0000000    
  1.23762376237623768E-002  0.69999999999999951      -0.69478962123065424        1.0000000    
  1.23762376237623768E-002  0.71249999999999947      -0.70729316280286791        1.0000000    
  1.23762376237623768E-002  0.72499999999999942      -0.71979710508848760        1.0000000    
  1.23762376237623768E-002  0.73749999999999938      -0.73230152897906109        1.0000000    
  1.23762376237623768E-002  0.74999999999999933      -0.74480653625074411        1.0000000    
  1.23762376237623768E-002  0.76249999999999929      -0.75731225670148417        1.0000000    
  1.23762376237623768E-002  0.77499999999999925      -0.76981885834632746        1.0000000    
  1.23762376237623768E-002  0.78749999999999920      -0.78232656225040376        1.0000000    
  1.23762376237623768E-002  0.79999999999999916      -0.79483566453560817        1.0000000    
  1.23762376237623768E-002  0.81249999999999911      -0.80734656971384378        1.0000000    
  1.23762376237623768E-002  0.82499999999999907      -0.81985984227768027        1.0000000    
  1.23762376237623768E-002  0.83749999999999902      -0.83237628833330213        1.0000000    
  1.23762376237623768E-002  0.84999999999999898      -0.84489708768047644        1.0000000    
  1.23762376237623768E-002  0.86249999999999893      -0.85742401227276666        1.0000000    
  1.23762376237623768E-002  0.87499999999999889      -0.86995979526255351        1.0000000    
  1.23762376237623768E-002  0.88749999999999885      -0.88250876631719266        1.0000000    
  1.23762376237623768E-002  0.89999999999999880      -0.89507795965432990        1.0000000    
  1.23762376237623768E-002  0.91249999999999876      -0.90767903765488755        1.0000000    
  1.23762376237623768E-002  0.92499999999999871      -0.92033141960488607        1.0000000    
  1.23762376237623768E-002  0.93749999999999867      -0.93306585258200714        1.0000000    
  1.23762376237623768E-002  0.94999999999999862      -0.94591851047310616        1.0000000    
  1.23762376237623768E-002  0.96249999999999858      -0.95884942908465898        1.0000000    
  1.23762376237623768E-002  0.97499999999999853      -0.97116544331098908        1.0000000    
  1.23762376237623768E-002  0.98749999999999849      -0.97701081215361130        1.0000000    
  1.23762376237623768E-002  0.99999999999999845      -0.98588429272477907        1.0000000    

  2.47524752475247536E-002   0.0000000000000000        0.0000000000000000        1.0000000    
  2.47524752475247536E-002  1.25000000000000007E-002 -4.87349325625108937E-003   1.0000000    
  2.47524752475247536E-002  2.50000000000000014E-002 -1.61814192006358958E-002   1.0000000    
  2.47524752475247536E-002  3.75000000000000056E-002 -2.93800236110893544E-002   1.0000000    
  2.47524752475247536E-002  5.00000000000000028E-002 -4.28717645448486867E-002   1.0000000    
  2.47524752475247536E-002  6.25000000000000000E-002 -5.62160695567588409E-002   1.0000000    
  2.47524752475247536E-002  7.49999999999999972E-002 -6.93484224197839921E-002   1.0000000    
  2.47524752475247536E-002  8.74999999999999944E-002 -8.23041276850212666E-002   1.0000000    
  2.47524752475247536E-002  9.99999999999999917E-002 -9.51314255737442105E-002   1.0000000    
  2.47524752475247536E-002  0.11249999999999999      -0.10786947485759507        1.0000000    
  2.47524752475247536E-002  0.12499999999999999      -0.12054605591893910        1.0000000    
  2.47524752475247536E-002  0.13749999999999998      -0.13317998431264852        1.0000000    
  2.47524752475247536E-002  0.14999999999999999      -0.14578385243546851        1.0000000    
  2.47524752475247536E-002  0.16250000000000001      -0.15836612438304112        1.0000000    
  2.47524752475247536E-002  0.17500000000000002      -0.17093256192546044        1.0000000    
  2.47524752475247536E-002  0.18750000000000003      -0.18348715429129600        1.0000000    
  2.47524752475247536E-002  0.20000000000000004      -0.19603271611614875        1.0000000    
  2.47524752475247536E-002  0.21250000000000005      -0.20857127219248894        1.0000000    
  2.47524752475247536E-002  0.22500000000000006      -0.22110430710961720        1.0000000    
  2.47524752475247536E-002  0.23750000000000007      -0.23363292931686094        1.0000000    
  2.47524752475247536E-002  0.25000000000000006      -0.24615798061342578        1.0000000    
  2.47524752475247536E-002  0.26250000000000007      -0.25868011044591954        1.0000000    
  2.47524752475247536E-002  0.27500000000000008      -0.27119982719728170        1.0000000    
  2.47524752475247536E-002  0.28750000000000009      -0.28371753420172152        1.0000000    
  2.47524752475247536E-002  0.30000000000000010      -0.29623355545722480        1.0000000    
  2.47524752475247536E-002  0.31250000000000011      -0.30874815427633140        1.0000000    
  2.47524752475247536E-002  0.32500000000000012      -0.32126154701918713        1.0000000    
  2.47524752475247536E-002  0.33750000000000013      -0.33377391334876588        1.0000000    
  2.47524752475247536E-002  0.35000000000000014      -0.34628540398986324        1.0000000    
  2.47524752475247536E-002  0.36250000000000016      -0.35879614667130472        1.0000000    
  2.47524752475247536E-002  0.37500000000000017      -0.37130625072927959        1.0000000    
  2.47524752475247536E-002  0.38750000000000018      -0.38381581071363052        1.0000000    
  2.47524752475247536E-002  0.40000000000000019      -0.39632490924550484        1.0000000    
  2.47524752475247536E-002  0.41250000000000020      -0.40883361930923745        1.0000000    
  2.47524752475247536E-002  0.42500000000000021      -0.42134200611449502        1.0000000    
  2.47524752475247536E-002  0.43750000000000022      -0.43385012863108280        1.0000000    
  2.47524752475247536E-002  0.45000000000000023      -0.44635804087495146        1.0000000    
  2.47524752475247536E-002  0.46250000000000024      -0.45886579300718172        1.0000000    
  2.47524752475247536E-002  0.47500000000000026      -0.47137343229574319        1.0000000    
  2.47524752475247536E-002  0.48750000000000027      -0.48388100398085165        1.0000000    
  2.47524752475247536E-002  0.50000000000000022      -0.49638855207786847        1.0000000    
  2.47524752475247536E-002  0.51250000000000018      -0.50889612014672847        1.0000000    
  2.47524752475247536E-002  0.52500000000000013      -0.52140375205392431        1.0000000    
  2.47524752475247536E-002  0.53750000000000009      -0.53391149275204119        1.0000000    
  2.47524752475247536E-002  0.55000000000000004      -0.54641938910249166        1.0000000    
  2.47524752475247536E-002  0.56250000000000000      -0.55892749076934922        1.0000000    
  2.47524752475247536E-002  0.57499999999999996      -0.57143585121620266        1.0000000    
  2.47524752475247536E-002  0.58749999999999991      -0.58394452884411396        1.0000000    
  2.47524752475247536E-002  0.59999999999999987      -0.59645358831754625        1.0000000    
  2.47524752475247536E-002  0.61249999999999982      -0.60896310213732563        1.0000000    
  2.47524752475247536E-002  0.62499999999999978      -0.62147315253675828        1.0000000    
  2.47524752475247536E-002  0.63749999999999973      -0.63398383380108525        1.0000000    
  2.47524752475247536E-002  0.64999999999999969      -0.64649525514429629        1.0000000    
  2.47524752475247536E-002  0.66249999999999964      -0.65900754432458675        1.0000000    
  2.47524752475247536E-002  0.67499999999999960      -0.67152085224605362        1.0000000    
  2.47524752475247536E-002  0.68749999999999956      -0.68403535888872602        1.0000000    
  2.47524752475247536E-002  0.69999999999999951      -0.69655128104616659        1.0000000    
  2.47524752475247536E-002  0.71249999999999947      -0.70906888255205003        1.0000000    
  2.47524752475247536E-002  0.72499999999999942      -0.72158848797938235        1.0000000    
  2.47524752475247536E-002  0.73749999999999938      -0.73411050125429667        1.0000000    
  2.47524752475247536E-002  0.74999999999999933      -0.74663543133069832        1.0000000    
  2.47524752475247536E-002  0.76249999999999929      -0.75916392816891687        1.0000000    
  2.47524752475247536E-002  0.77499999999999925      -0.77169683399185540        1.0000000    
  2.47524752475247536E-002  0.78749999999999920      -0.78423525755386259        1.0000000    
  2.47524752475247536E-002  0.79999999999999916      -0.79678068360510534        1.0000000    
  2.47524752475247536E-002  0.81249999999999911      -0.80933513692965631        1.0000000    
  2.47524752475247536E-002  0.82499999999999907      -0.82190143195489040        1.0000000    
  2.47524752475247536E-002  0.83749999999999902      -0.83448355745406277        1.0000000    
  2.47524752475247536E-002  0.84999999999999898      -0.84708727441049947        1.0000000    
  2.47524752475247536E-002  0.86249999999999893      -0.85972104564588714        1.0000000    
  2.47524752475247536E-002  0.87499999999999889      -0.87239746151751096        1.0000000    
  2.47524752475247536E-002  0.88749999999999885      -0.88513533430729230        1.0000000    
  2.47524752475247536E-002  0.89999999999999880      -0.89796243916121488        1.0000000    
  2.47524752475247536E-002  0.91249999999999876      -0.91091792663214166        1.0000000    
  2.47524752475247536E-002  0.92499999999999871      -0.92405002463288688        1.0000000    
  2.47524752475247536E-002  0.93749999999999867      -0.93739402110822245        1.0000000    
  2.47524752475247536E-002  0.94999999999999862      -0.95088538288055124        1.0000000    
  2.47524752475247536E-002  0.96249999999999858      -0.96408353669255931        1.0000000    
  2.47524752475247536E-002  0.97499999999999853      -0.97539100253096267        1.0000000    
  2.47524752475247536E-002  0.98749999999999849      -0.98026427667529159        1.0000000    
  2.47524752475247536E-002  0.99999999999999845      -0.97764079544697335        1.0000000    

  3.71287128712871339E-002   0.0000000000000000        0.0000000000000000        1.0000000    
  3.71287128712871339E-002  1.25000000000000007E-002 -4.03968039025232473E-003   1.0000000    
  3.71287128712871339E-002  2.50000000000000014E-002 -1.41382687981430732E-002   1.0000000    
  3.71287128712871339E-002  3.75000000000000056E-002 -2.69982783491988995E-002   1.0000000    
  3.71287128712871339E-002  5.00000000000000028E-002 -4.07469403848766537E-002   1.0000000    
  3.71287128712871339E-002  6.25000000000000000E-002 -5.45676614854142678E-002   1.0000000    
  3.71287128712871339E-002  7.49999999999999972E-002 -6.81863739180562367E-002   1.0000000    
  3.71287128712871339E-002  8.74999999999999944E-002 -8.15585714242219734E-002   1.0000000    
  3.71287128712871339E-002  9.99999999999999917E-002 -9.47177876442579919E-002   1.0000000    
  3.71287128712871339E-002  0.11249999999999999      -0.10771313325291622        1.0000000    
  3.71287128712871339E-002  0.12499999999999999      -0.12058812809952651        1.0000000    
  3.71287128712871339E-002  0.13749999999999998      -0.13337609066776721        1.0000000    
  3.71287128712871339E-002  0.14999999999999999      -0.14610107101539638        1.0000000    
  3.71287128712871339E-002  0.16250000000000001      -0.15878003963140480        1.0000000    
  3.71287128712871339E-002  0.17500000000000002      -0.17142491955614070        1.0000000    
  3.71287128712871339E-002  0.18750000000000003      -0.18404413636816641        1.0000000    
  3.71287128712871339E-002  0.20000000000000004      -0.19664371301179803        1.0000000    
  3.71287128712871339E-002  0.21250000000000005      -0.20922801800371127        1.0000000    
  3.71287128712871339E-002  0.22500000000000006      -0.22180027066220173        1.0000000    
  3.71287128712871339E-002  0.23750000000000007      -0.23436288212405496        1.0000000    
  3.71287128712871339E-002  0.25000000000000006      -0.24691768700523348        1.0000000    
  3.71287128712871339E-002  0.26250000000000007      -0.25946610244064122        1.0000000    
  3.71287128712871339E-002  0.27500000000000008      -0.27200923869044558        1.0000000    
  3.71287128712871339E-002  0.28750000000000009      -0.28454797716300995        1.0000000    
  3.71287128712871339E-002  0.30000000000000010      -0.29708302626727112        1.0000000    
  3.71287128712871339E-002  0.31250000000000011      -0.30961496198416982        1.0000000    
  3.71287128712871339E-002  0.32500000000000012      -0.32214425776140165        1.0000000    
  3.71287128712871339E-002  0.33750000000000013      -0.33467130684483198        1.0000000    
  3.71287128712871339E-002  0.35000000000000014      -0.34719643917889603        1.0000000    
  3.71287128712871339E-002  0.36250000000000016      -0.35971993435634225        1.0000000    
  3.71287128712871339E-002  0.37500000000000017      -0.37224203165978215        1.0000000    
  3.71287128712871339E-002  0.38750000000000018      -0.38476293793994198        1.0000000    
  3.71287128712871339E-002  0.40000000000000019      -0.39728283387048752        1.0000000    
  3.71287128712871339E-002  0.41250000000000020      -0.40980187897579140        1.0000000    
  3.71287128712871339E-002  0.42500000000000021      -0.42232021572613543        1.0000000    
  3.71287128712871339E-002  0.43750000000000022      -0.43483797292197862        1.0000000    
  3.71287128712871339E-002  0.45000000000000023      -0.44735526853684660        1.0000000    
  3.71287128712871339E-002  0.46250000000000024      -0.45987221215127083        1.0000000    
  3.71287128712871339E-002  0.47500000000000026      -0.47238890708357789        1.0000000    
  3.71287128712871339E-002  0.48750000000000027      -0.48490545230397780        1.0000000    
  3.71287128712871339E-002  0.50000000000000022      -0.49742194420437102        1.0000000    
  3.71287128712871339E-002  0.51250000000000018      -0.50993847828667160        1.0000000    
  3.71287128712871339E-002  0.52500000000000013      -0.52245515082686411        1.0000000    
  3.71287128712871339E-002  0.53750000000000009      -0.53497206057019397        1.0000000    
  3.71287128712871339E-002  0.55000000000000004      -0.54748931051458194        1.0000000    
  3.71287128712871339E-002  0.56250000000000000      -0.56000700984451157        1.0000000    
  3.71287128712871339E-002  0.57499999999999996      -0.57252527608659465        1.0000000    
  3.71287128712871339E-002  0.58749999999999991      -0.58504423757152213        1.0000000    
  3.71287128712871339E-002  0.59999999999999987      -0.59756403630634125        1.0000000    
  3.71287128712871339E-002  0.61249999999999982      -0.61008483138782699        1.0000000    
  3.71287128712871339E-002  0.62499999999999978      -0.62260680312506311        1.0000000    
  3.71287128712871339E-002  0.63749999999999973      -0.63513015809145701        1.0000000    
  3.71287128712871339E-002  0.64999999999999969      -0.64765513539920339        1.0000000    
  3.71287128712871339E-002  0.66249999999999964      -0.66018201459114634        1.0000000    
  3.71287128712871339E-002  0.67499999999999960      -0.67271112568887426        1.0000000    
  3.71287128712871339E-002  0.68749999999999956      -0.68524286214160435        1.0000000    
  3.71287128712871339E-002  0.69999999999999951      -0.69777769771876474        1.0000000    
  3.71287128712871339E-002  0.71249999999999947      -0.71031620882758517        1.0000000    
  3.71287128712871339E-002  0.72499999999999942      -0.72285910438906742        1.0000000    
  3.71287128712871339E-002  0.73749999999999938      -0.73540726638661835        1.0000000    
  3.71287128712871339E-002  0.74999999999999933      -0.74796180569247062        1.0000000    
  3.71287128712871339E-002  0.76249999999999929      -0.76052414006209901        1.0000000    
  3.71287128712871339E-002  0.77499999999999925      -0.77309610470913070        1.0000000    
  3.71287128712871339E-002  0.78749999999999920      -0.78568011130849291        1.0000000    
  3.71287128712871339E-002  0.79999999999999916      -0.79827937960968753        1.0000000    
  3.71287128712871339E-002  0.81249999999999911      -0.81089827838443618        1.0000000    
  3.71287128712871339E-002  0.82499999999999907      -0.82354283054453181        1.0000000    
  3.71287128712871339E-002  0.83749999999999902      -0.83622146115873641        1.0000000    
  3.71287128712871339E-002  0.84999999999999898      -0.84894609195135617        1.0000000    
  3.71287128712871339E-002  0.86249999999999893      -0.86173369072535966        1.0000000    
  3.71287128712871339E-002  0.87499999999999889      -0.87460830255163968        1.0000000    