 variables = "x","y","p"
 zone i=         203 , j=          81 , f=point
   0.0000000000000000        0.0000000000000000        0.0000000000000000     
  1.23762376237623768E-002   0.0000000000000000        0.0000000000000000     
  2.47524752475247536E-002   0.0000000000000000        0.0000000000000000     
  3.71287128712871339E-002   0.0000000000000000        0.0000000000000000     
  4.95049504950495073E-002   0.0000000000000000        0.0000000000000000     
  6.18811881188118806E-002   0.0000000000000000        0.0000000000000000     
  7.42574257425742540E-002   0.0000000000000000        0.0000000000000000     
  8.66336633663366273E-002   0.0000000000000000        0.0000000000000000     
  9.90099009900990007E-002   0.0000000000000000        0.0000000000000000     
  0.11138613861386137        0.0000000000000000        0.0000000000000000     
  0.12376237623762375        0.0000000000000000        0.0000000000000000     
  0.13613861386138612        0.0000000000000000        0.0000000000000000     
  0.14851485148514851        0.0000000000000000        0.0000000000000000     
  0.16089108910891090        0.0000000000000000        0.0000000000000000     
  0.17326732673267328        0.0000000000000000        0.0000000000000000     
  0.18564356435643567        0.0000000000000000        0.0000000000000000     
  0.19801980198019806        0.0000000000000000        0.0000000000000000     
  0.21039603960396044        0.0000000000000000        0.0000000000000000     
  0.22277227722772283        0.0000000000000000        0.0000000000000000     
  0.23514851485148522        0.0000000000000000        0.0000000000000000     
  0.24752475247524761        0.0000000000000000        0.0000000000000000     
  0.25990099009900997        0.0000000000000000        0.0000000000000000     
  0.27227722772277235        0.0000000000000000        0.0000000000000000     
  0.28465346534653474        0.0000000000000000        0.0000000000000000     
  0.29702970297029713        0.0000000000000000        0.0000000000000000     
  0.30940594059405951        0.0000000000000000        0.0000000000000000     
  0.32178217821782190        0.0000000000000000        0.0000000000000000     
  0.33415841584158429        0.0000000000000000        0.0000000000000000     
  0.34653465346534668        0.0000000000000000        0.0000000000000000     
  0.35891089108910906        0.0000000000000000        0.0000000000000000     
  0.37128712871287145        0.0000000000000000        0.0000000000000000     
  0.38366336633663384        0.0000000000000000        0.0000000000000000     
  0.39603960396039622        0.0000000000000000        0.0000000000000000     
  0.40841584158415861        0.0000000000000000        0.0000000000000000     
  0.42079207920792100        0.0000000000000000        0.0000000000000000     
  0.43316831683168339        0.0000000000000000        0.0000000000000000     
  0.44554455445544577        0.0000000000000000        0.0000000000000000     
  0.45792079207920816        0.0000000000000000        0.0000000000000000     
  0.47029702970297055        0.0000000000000000        0.0000000000000000     
  0.48267326732673294        0.0000000000000000        0.0000000000000000     
  0.49504950495049532        0.0000000000000000        0.0000000000000000     
  0.50742574257425765        0.0000000000000000        0.0000000000000000     
  0.51980198019802004        0.0000000000000000        0.0000000000000000     
  0.53217821782178243        0.0000000000000000        0.0000000000000000     
  0.54455445544554482        0.0000000000000000        0.0000000000000000     
  0.55693069306930720        0.0000000000000000        0.0000000000000000     
  0.56930693069306959        0.0000000000000000        0.0000000000000000     
  0.58168316831683198        0.0000000000000000        0.0000000000000000     
  0.59405940594059436        0.0000000000000000        0.0000000000000000     
  0.60643564356435675        0.0000000000000000        0.0000000000000000     
  0.61881188118811914        0.0000000000000000        0.0000000000000000     
  0.63118811881188153        0.0000000000000000        0.0000000000000000     
  0.64356435643564391        0.0000000000000000        0.0000000000000000     
  0.65594059405940630        0.0000000000000000        0.0000000000000000     
  0.66831683168316869        0.0000000000000000        0.0000000000000000     
  0.68069306930693108        0.0000000000000000        0.0000000000000000     
  0.69306930693069346        0.0000000000000000        0.0000000000000000     
  0.70544554455445585        0.0000000000000000        0.0000000000000000     
  0.71782178217821824        0.0000000000000000        0.0000000000000000     
  0.73019801980198062        0.0000000000000000        0.0000000000000000     
  0.74257425742574301        0.0000000000000000        0.0000000000000000     
  0.75495049504950540        0.0000000000000000        0.0000000000000000     
  0.76732673267326779        0.0000000000000000        0.0000000000000000     
  0.77970297029703017        0.0000000000000000        0.0000000000000000     
  0.79207920792079256        0.0000000000000000        0.0000000000000000     
  0.80445544554455495        0.0000000000000000        0.0000000000000000     
  0.81683168316831734        0.0000000000000000        0.0000000000000000     
  0.82920792079207972        0.0000000000000000        0.0000000000000000     
  0.84158415841584211        0.0000000000000000        0.0000000000000000     
  0.85396039603960450        0.0000000000000000        0.0000000000000000     
  0.86633663366336688        0.0000000000000000        0.0000000000000000     
  0.87871287128712927        0.0000000000000000        0.0000000000000000     
  0.89108910891089166        0.0000000000000000        0.0000000000000000     
  0.90346534653465405        0.0000000000000000        0.0000000000000000     
  0.91584158415841643        0.0000000000000000        0.0000000000000000     
  0.92821782178217882        0.0000000000000000        0.0000000000000000     
  0.94059405940594121        0.0000000000000000        0.0000000000000000     
  0.95297029702970359        0.0000000000000000        0.0000000000000000     
  0.96534653465346598        0.0000000000000000        0.0000000000000000     
  0.97772277227722837        0.0000000000000000        0.0000000000000000     
  0.99009900990099076        0.0000000000000000        0.0000000000000000     
   1.0024752475247531        0.0000000000000000        0.0000000000000000     
   1.0148514851485155        0.0000000000000000        0.0000000000000000     
   1.0272277227722779        0.0000000000000000        0.0000000000000000     
   1.0396039603960403        0.0000000000000000        0.0000000000000000     
   1.0519801980198027        0.0000000000000000        0.0000000000000000     
   1.0643564356435651        0.0000000000000000        0.0000000000000000     
   1.0767326732673275        0.0000000000000000        0.0000000000000000     
   1.0891089108910899        0.0000000000000000        0.0000000000000000     
   1.1014851485148522        0.0000000000000000        0.0000000000000000     
   1.1138613861386146        0.0000000000000000        0.0000000000000000     
   1.1262376237623770        0.0000000000000000        0.0000000000000000     
   1.1386138613861394        0.0000000000000000        0.0000000000000000     
   1.1509900990099018        0.0000000000000000        0.0000000000000000     
   1.1633663366336642        0.0000000000000000        0.0000000000000000     
   1.1757425742574266        0.0000000000000000        0.0000000000000000     
   1.1881188118811890        0.0000000000000000        0.0000000000000000     
   1.2004950495049513        0.0000000000000000        0.0000000000000000     
   1.2128712871287137        0.0000000000000000        0.0000000000000000     
   1.2252475247524761        0.0000000000000000        0.0000000000000000     
   1.2376237623762385        0.0000000000000000        0.0000000000000000     
   1.2500000000000009        0.0000000000000000        0.0000000000000000     
   1.2623762376237633        0.0000000000000000        0.0000000000000000     
   1.2747524752475257        0.0000000000000000        0.0000000000000000     
   1.2871287128712880        0.0000000000000000        0.0000000000000000     
   1.2995049504950504        0.0000000000000000        0.0000000000000000     
   1.3118811881188128        0.0000000000000000        0.0000000000000000     
   1.3242574257425752        0.0000000000000000        0.0000000000000000     
   1.3366336633663376        0.0000000000000000        0.0000000000000000     
   1.3490099009901000        0.0000000000000000        0.0000000000000000     
   1.3613861386138624        0.0000000000000000        0.0000000000000000     
   1.3737623762376248        0.0000000000000000        0.0000000000000000     
   1.3861386138613871        0.0000000000000000        0.0000000000000000     
   1.3985148514851495        0.0000000000000000        0.0000000000000000     
   1.4108910891089119        0.0000000000000000        0.0000000000000000     
   1.4232673267326743        0.0000000000000000        0.0000000000000000     
   1.4356435643564367        0.0000000000000000        0.0000000000000000     
   1.4480198019801991        0.0000000000000000        0.0000000000000000     
   1.4603960396039615        0.0000000000000000        0.0000000000000000     
   1.4727722772277239        0.0000000000000000        0.0000000000000000     
   1.4851485148514862        0.0000000000000000        0.0000000000000000     
   1.4975247524752486        0.0000000000000000        0.0000000000000000     
   1.5099009900990110        0.0000000000000000        0.0000000000000000     
   1.5222772277227734        0.0000000000000000        0.0000000000000000     
   1.5346534653465358        0.0000000000000000        0.0000000000000000     
   1.5470297029702982        0.0000000000000000        0.0000000000000000     
   1.5594059405940606        0.0000000000000000        0.0000000000000000     
   1.5717821782178230        0.0000000000000000        0.0000000000000000     
   1.5841584158415853        0.0000000000000000        0.0000000000000000     
   1.5965346534653477        0.0000000000000000        0.0000000000000000     
   1.6089108910891101        0.0000000000000000        0.0000000000000000     
   1.6212871287128725        0.0000000000000000        0.0000000000000000     
   1.6336633663366349        0.0000000000000000        0.0000000000000000     
   1.6460396039603973        0.0000000000000000        0.0000000000000000     
   1.6584158415841597        0.0000000000000000        0.0000000000000000     
   1.6707920792079221        0.0000000000000000        0.0000000000000000     
   1.6831683168316844        0.0000000000000000        0.0000000000000000     
   1.6955445544554468        0.0000000000000000        0.0000000000000000     
   1.7079207920792092        0.0000000000000000        0.0000000000000000     
   1.7202970297029716        0.0000000000000000        0.0000000000000000     
   1.7326732673267340        0.0000000000000000        0.0000000000000000     
   1.7450495049504964        0.0000000000000000        0.0000000000000000     
   1.7574257425742588        0.0000000000000000        0.0000000000000000     
   1.7698019801980212        0.0000000000000000        0.0000000000000000     
   1.7821782178217835        0.0000000000000000        0.0000000000000000     
   1.7945544554455459        0.0000000000000000        0.0000000000000000     
   1.8069306930693083        0.0000000000000000        0.0000000000000000     
   1.8193069306930707        0.0000000000000000        0.0000000000000000     
   1.8316831683168331        0.0000000000000000        0.0000000000000000     
   1.8440594059405955        0.0000000000000000        0.0000000000000000     
   1.8564356435643579        0.0000000000000000        0.0000000000000000     
   1.8688118811881202        0.0000000000000000        0.0000000000000000     
   1.8811881188118826        0.0000000000000000        0.0000000000000000     
   1.8935643564356450        0.0000000000000000        0.0000000000000000     
   1.9059405940594074        0.0000000000000000        0.0000000000000000     
   1.9183168316831698        0.0000000000000000        0.0000000000000000     
   1.9306930693069322        0.0000000000000000        0.0000000000000000     
   1.9430693069306946        0.0000000000000000        0.0000000000000000     
   1.9554455445544570        0.0000000000000000        0.0000000000000000     
   1.9678217821782193        0.0000000000000000        0.0000000000000000     
   1.9801980198019817        0.0000000000000000        0.0000000000000000     
   1.9925742574257441        0.0000000000000000        0.0000000000000000     
   2.0049504950495063        0.0000000000000000        0.0000000000000000     
   2.0173267326732685        0.0000000000000000        0.0000000000000000     
   2.0297029702970306        0.0000000000000000        0.0000000000000000     
   2.0420792079207928        0.0000000000000000        0.0000000000000000     
   2.0544554455445549        0.0000000000000000        0.0000000000000000     
   2.0668316831683171        0.0000000000000000        0.0000000000000000     
   2.0792079207920793        0.0000000000000000        0.0000000000000000     
   2.0915841584158414        0.0000000000000000        0.0000000000000000     
   2.1039603960396036        0.0000000000000000        0.0000000000000000     
   2.1163366336633658        0.0000000000000000        0.0000000000000000     
   2.1287128712871279        0.0000000000000000        0.0000000000000000     
   2.1410891089108901        0.0000000000000000        0.0000000000000000     
   2.1534653465346523        0.0000000000000000        0.0000000000000000     
   2.1658415841584144        0.0000000000000000        0.0000000000000000     
   2.1782178217821766        0.0000000000000000        0.0000000000000000     
   2.1905940594059388        0.0000000000000000        0.0000000000000000     
   2.2029702970297009        0.0000000000000000        0.0000000000000000     
   2.2153465346534631        0.0000000000000000        0.0000000000000000     
   2.2277227722772253        0.0000000000000000        0.0000000000000000     
   2.2400990099009874        0.0000000000000000        0.0000000000000000     
   2.2524752475247496        0.0000000000000000        0.0000000000000000     
   2.2648514851485118        0.0000000000000000        0.0000000000000000     
   2.2772277227722739        0.0000000000000000        0.0000000000000000     
   2.2896039603960361        0.0000000000000000        0.0000000000000000     
   2.3019801980197983        0.0000000000000000        0.0000000000000000     
   2.3143564356435604        0.0000000000000000        0.0000000000000000     
   2.3267326732673226        0.0000000000000000        0.0000000000000000     
   2.3391089108910847        0.0000000000000000        0.0000000000000000     
   2.3514851485148469        0.0000000000000000        0.0000000000000000     
   2.3638613861386091        0.0000000000000000        0.0000000000000000     
   2.3762376237623712        0.0000000000000000        0.0000000000000000     
   2.3886138613861334        0.0000000000000000        0.0000000000000000     
   2.4009900990098956        0.0000000000000000        0.0000000000000000     
   2.4133663366336577        0.0000000000000000        0.0000000000000000     
   2.4257425742574199        0.0000000000000000        0.0000000000000000     
   2.4381188118811821        0.0000000000000000        0.0000000000000000     
   2.4504950495049442        0.0000000000000000        0.0000000000000000     
   2.4628712871287064        0.0000000000000000        0.0000000000000000     
   2.4752475247524686        0.0000000000000000        0.0000000000000000     
   2.4876237623762307        0.0000000000000000        0.0000000000000000     
   2.4999999999999929        0.0000000000000000        0.0000000000000000     

   0.0000000000000000       1.25000000000000007E-002   0.0000000000000000     
  1.23762376237623768E-002  1.25000000000000007E-002   2.0904548149299473     
  2.47524752475247536E-002  1.25000000000000007E-002   1.1867301251067759     
  3.71287128712871339E-002  1.25000000000000007E-002  0.75282033581081009     
  4.95049504950495073E-002  1.25000000000000007E-002  0.53918287622718020     
  6.18811881188118806E-002  1.25000000000000007E-002  0.42844895836303404     
  7.42574257425742540E-002  1.25000000000000007E-002  0.36491564953459704     
  8.66336633663366273E-002  1.25000000000000007E-002  0.32384323043637225     
  9.90099009900990007E-002  1.25000000000000007E-002  0.29446116230523200     
  0.11138613861386137       1.25000000000000007E-002  0.27188141605865168     
  0.12376237623762375       1.25000000000000007E-002  0.25368520224854313     
  0.13613861386138612       1.25000000000000007E-002  0.23854481379764519     
  0.14851485148514851       1.25000000000000007E-002  0.22565783190944125     
  0.16089108910891090       1.25000000000000007E-002  0.21450044493469048     
  0.17326732673267328       1.25000000000000007E-002  0.20471038529637223     
  0.18564356435643567       1.25000000000000007E-002  0.19602612360571448     
  0.19801980198019806       1.25000000000000007E-002  0.18825258626757380     
  0.21039603960396044       1.25000000000000007E-002  0.18124047493362513     
  0.22277227722772283       1.25000000000000007E-002  0.17487310606702930     
  0.23514851485148522       1.25000000000000007E-002  0.16905767604082836     
  0.24752475247524761       1.25000000000000007E-002  0.16371926477058613     
  0.25990099009900997       1.25000000000000007E-002  0.15879660374458365     
  0.27227722772277235       1.25000000000000007E-002  0.15423901891252087     
  0.28465346534653474       1.25000000000000007E-002  0.15000417769687424     
  0.29702970297029713       1.25000000000000007E-002  0.14605639943883594     
  0.30940594059405951       1.25000000000000007E-002  0.14236536873247738     
  0.32178217821782190       1.25000000000000007E-002  0.13890514201516216     
  0.33415841584158429       1.25000000000000007E-002  0.13565337099400174     
  0.34653465346534668       1.25000000000000007E-002  0.13259068866882798     
  0.35891089108910906       1.25000000000000007E-002  0.12970021884380420     
  0.37128712871287145       1.25000000000000007E-002  0.12696718054027209     
  0.38366336633663384       1.25000000000000007E-002  0.12437856615942793     
  0.39603960396039622       1.25000000000000007E-002  0.12192287757211567     
  0.40841584158415861       1.25000000000000007E-002  0.11958990817321727     
  0.42079207920792100       1.25000000000000007E-002  0.11737056175705864     
  0.43316831683168339       1.25000000000000007E-002  0.11525670114152906     
  0.44554455445544577       1.25000000000000007E-002  0.11324102100171658     
  0.45792079207920816       1.25000000000000007E-002  0.11131694052391991     
  0.47029702970297055       1.25000000000000007E-002  0.10947851237408458     
  0.48267326732673294       1.25000000000000007E-002  0.10772034517362004     
  0.49504950495049532       1.25000000000000007E-002  0.10603753724080532     
  0.50742574257425765       1.25000000000000007E-002  0.10442561981020419     
  0.51980198019802004       1.25000000000000007E-002  0.10288050829100281     
  0.53217821782178243       1.25000000000000007E-002  0.10139846037133227     
  0.54455445544554482       1.25000000000000007E-002  9.99760399352789403E-002
  0.55693069306930720       1.25000000000000007E-002  9.86100858653069928E-002
  0.56930693069306959       1.25000000000000007E-002  9.72976848968532398E-002
  0.58168316831683198       1.25000000000000007E-002  9.60361478066951851E-002
  0.59405940594059436       1.25000000000000007E-002  9.48229883601564155E-002
  0.60643564356435675       1.25000000000000007E-002  9.36559045934870493E-002
  0.61881188118811914       1.25000000000000007E-002  9.25327621302437509E-002
  0.63118811881188153       1.25000000000000007E-002  9.14515792951346163E-002
  0.64356435643564391       1.25000000000000007E-002  9.04105137936582759E-002
  0.65594059405940630       1.25000000000000007E-002  8.94078506999260031E-002
  0.66831683168316869       1.25000000000000007E-002  8.84419914826639203E-002
  0.68069306930693108       1.25000000000000007E-002  8.75114438346307894E-002
  0.69306930693069346       1.25000000000000007E-002  8.66148121571199137E-002
  0.70544554455445585       1.25000000000000007E-002  8.57507886597975166E-002
  0.71782178217821824       1.25000000000000007E-002  8.49181451224769734E-002
  0.73019801980198062       1.25000000000000007E-002  8.41157253958686735E-002
  0.74257425742574301       1.25000000000000007E-002  8.33424386889340396E-002
  0.75495049504950540       1.25000000000000007E-002  8.25972536277774921E-002
  0.76732673267326779       1.25000000000000007E-002  8.18791930152077130E-002
  0.77970297029703017       1.25000000000000007E-002  8.11873292010181075E-002
  0.79207920792079256       1.25000000000000007E-002  8.05207799941543012E-002
  0.80445544554455495       1.25000000000000007E-002  7.98787050871421767E-002
  0.81683168316831734       1.25000000000000007E-002  7.92603029888823418E-002
  0.82920792079207972       1.25000000000000007E-002  7.86648084540306075E-002
  0.84158415841584211       1.25000000000000007E-002  7.80914903591441306E-002
  0.85396039603960450       1.25000000000000007E-002  7.75396499314157384E-002
  0.86633663366336688       1.25000000000000007E-002  7.70086192135445852E-002
  0.87871287128712927       1.25000000000000007E-002  7.64977596633102941E-002
  0.89108910891089166       1.25000000000000007E-002  7.60064608319644675E-002
  0.90346534653465405       1.25000000000000007E-002  7.55341391175266413E-002
  0.91584158415841643       1.25000000000000007E-002  7.50802366198456278E-002
  0.92821782178217882       1.25000000000000007E-002  7.46442201176976822E-002
  0.94059405940594121       1.25000000000000007E-002  7.42255801479635297E-002
  0.95297029702970359       1.25000000000000007E-002  7.38238301154138105E-002
  0.96534653465346598       1.25000000000000007E-002  7.34385053293807738E-002
  0.97772277227722837       1.25000000000000007E-002  7.30691618741579757E-002
  0.99009900990099076       1.25000000000000007E-002  7.27153752760334449E-002
   1.0024752475247531       1.25000000000000007E-002  7.23767390090117591E-002
   1.0148514851485155       1.25000000000000007E-002  7.20528629455377961E-002
   1.0272277227722779       1.25000000000000007E-002  7.17433718750815075E-002
   1.0396039603960403       1.25000000000000007E-002  7.14479041747781013E-002
   1.0519801980198027       1.25000000000000007E-002  7.11661106464621940E-002
   1.0643564356435651       1.25000000000000007E-002  7.08976534754135052E-002
   1.0767326732673275       1.25000000000000007E-002  7.06422052521846339E-002
   1.0891089108910899       1.25000000000000007E-002  7.03994480350670082E-002
   1.1014851485148522       1.25000000000000007E-002  7.01690724900077417E-002
   1.1138613861386146       1.25000000000000007E-002  6.99507771857045546E-002
   1.1262376237623770       1.25000000000000007E-002  6.97442681149487709E-002
   1.1386138613861394       1.25000000000000007E-002  6.95492584606119540E-002
   1.1509900990099018       1.25000000000000007E-002  6.93654685570324614E-002
   1.1633663366336642       1.25000000000000007E-002  6.91926259558079820E-002
   1.1757425742574266       1.25000000000000007E-002  6.90304655138341550E-002
   1.1881188118811890       1.25000000000000007E-002  6.88787294735347944E-002
   1.2004950495049513       1.25000000000000007E-002  6.87371675654065151E-002
   1.2128712871287137       1.25000000000000007E-002  6.86055371901367478E-002
   1.2252475247524761       1.25000000000000007E-002  6.84836037112940693E-002
   1.2376237623762385       1.25000000000000007E-002  6.83711408247076741E-002
   1.2500000000000009       1.25000000000000007E-002  6.82679309091226566E-002
   1.2623762376237633       1.25000000000000007E-002  6.81737652471775674E-002
   1.2747524752475257       1.25000000000000007E-002  6.80884440509295363E-002
   1.2871287128712880       1.25000000000000007E-002  6.80117763074921666E-002
   1.2995049504950504       1.25000000000000007E-002  6.79435795286806865E-002
   1.3118811881188128       1.25000000000000007E-002  6.78836795021282996E-002
   1.3242574257425752       1.25000000000000007E-002  6.78319100934203362E-002
   1.3366336633663376       1.25000000000000007E-002  6.77881130719931169E-002
   1.3490099009901000       1.25000000000000007E-002  6.77521378776783367E-002
   1.3613861386138624       1.25000000000000007E-002  6.77238412445319571E-002
   1.3737623762376248       1.25000000000000007E-002  6.77030866529778619E-002
   1.3861386138613871       1.25000000000000007E-002  6.76897436571285011E-002
   1.3985148514851495       1.25000000000000007E-002  6.76836871884584079E-002
   1.4108910891089119       1.25000000000000007E-002  6.76847969419970413E-002
   1.4232673267326743       1.25000000000000007E-002  6.76929569074202347E-002
   1.4356435643564367       1.25000000000000007E-002  6.77080550408045018E-002
   1.4480198019801991       1.25000000000000007E-002  6.77299830197937297E-002
   1.4603960396039615       1.25000000000000007E-002  6.77586360136098464E-002
   1.4727722772277239       1.25000000000000007E-002  6.77939124343635152E-002
   1.4851485148514862       1.25000000000000007E-002  6.78357136949741119E-002
   1.4975247524752486       1.25000000000000007E-002  6.78839440438759184E-002
   1.5099009900990110       1.25000000000000007E-002  6.79385105475672213E-002
   1.5222772277227734       1.25000000000000007E-002  6.79993232469463665E-002
   1.5346534653465358       1.25000000000000007E-002  6.80662954502504053E-002
   1.5470297029702982       1.25000000000000007E-002  6.81393440830989211E-002
   1.5594059405940606       1.25000000000000007E-002  6.82183900181193847E-002
   1.5717821782178230       1.25000000000000007E-002  6.83033583475853301E-002
   1.5841584158415853       1.25000000000000007E-002  6.83941786155716352E-002
   1.5965346534653477       1.25000000000000007E-002  6.84907850614901587E-002
   1.6089108910891101       1.25000000000000007E-002  6.85931169264532709E-002
   1.6212871287128725       1.25000000000000007E-002  6.87011188366217218E-002
   1.6336633663366349       1.25000000000000007E-002  6.88147412193920727E-002
   1.6460396039603973       1.25000000000000007E-002  6.89339406591494563E-002
   1.6584158415841597       1.25000000000000007E-002  6.90586800928524591E-002
   1.6707920792079221       1.25000000000000007E-002  6.91889287967008965E-002
   1.6831683168316844       1.25000000000000007E-002  6.93246622003517721E-002
   1.6955445544554468       1.25000000000000007E-002  6.94658616306595977E-002
   1.7079207920792092       1.25000000000000007E-002  6.96125140862807884E-002
   1.7202970297029716       1.25000000000000007E-002  6.97646120783929069E-002
   1.7326732673267340       1.25000000000000007E-002  6.99221534903321507E-002
   1.7450495049504964       1.25000000000000007E-002  7.00851413656636002E-002
   1.7574257425742588       1.25000000000000007E-002  7.02535835480058435E-002
   1.7698019801980212       1.25000000000000007E-002  7.04274921452975183E-002
   1.7821782178217835       1.25000000000000007E-002  7.06068828503290530E-002
   1.7945544554455459       1.25000000000000007E-002  7.07917742109319265E-002
   1.8069306930693083       1.25000000000000007E-002  7.09821869984304937E-002
   1.8193069306930707       1.25000000000000007E-002  7.11781438339231937E-002
   1.8316831683168331       1.25000000000000007E-002  7.13796691541291745E-002
   1.8440594059405955       1.25000000000000007E-002  7.15867894476117372E-002
   1.8564356435643579       1.25000000000000007E-002  7.17995335693404763E-002
   1.8688118811881202       1.25000000000000007E-002  7.20179329542691565E-002
   1.8811881188118826       1.25000000000000007E-002  7.22420216947352728E-002
   1.8935643564356450       1.25000000000000007E-002  7.24718365917154106E-002
   1.9059405940594074       1.25000000000000007E-002  7.27074173098528759E-002
   1.9183168316831698       1.25000000000000007E-002  7.29488066731398821E-002
   1.9306930693069322       1.25000000000000007E-002  7.31960510571229017E-002
   1.9430693069306946       1.25000000000000007E-002  7.34492008383815370E-002
   1.9554455445544570       1.25000000000000007E-002  7.37083108802003423E-002
   1.9678217821782193       1.25000000000000007E-002  7.39734409546753818E-002
   1.9801980198019817       1.25000000000000007E-002  7.42446558638742704E-002
   1.9925742574257441       1.25000000000000007E-002  7.45220250149662006E-002
   2.0049504950495063       1.25000000000000007E-002  7.48056214332494113E-002
   2.0173267326732685       1.25000000000000007E-002  7.50955204957116512E-002
   2.0297029702970306       1.25000000000000007E-002  7.53917987335532835E-002
   2.0420792079207928       1.25000000000000007E-002  7.56945327990572042E-002
   2.0544554455445549       1.25000000000000007E-002  7.60037983784651872E-002
   2.0668316831683171       1.25000000000000007E-002  7.63196687725206935E-002
   2.0792079207920793       1.25000000000000007E-002  7.66422130775685495E-002
   2.0915841584158414       1.25000000000000007E-002  7.69714941211190051E-002
   2.1039603960396036       1.25000000000000007E-002  7.73075663247667633E-002
   2.1163366336633658       1.25000000000000007E-002  7.76504735287225634E-002
   2.1287128712871279       1.25000000000000007E-002  7.80002466991503024E-002
   2.1410891089108901       1.25000000000000007E-002  7.83569014528939650E-002
   2.1534653465346523       1.25000000000000007E-002  7.87204354275257145E-002