 variables = "x","y","psi"
 zone i=         203 , j=          81 , f=point
   0.0000000000000000        0.0000000000000000        0.0000000000000000     
  1.23762376237623768E-002   0.0000000000000000        0.0000000000000000     
  2.47524752475247536E-002   0.0000000000000000        0.0000000000000000     
  3.71287128712871339E-002   0.0000000000000000        0.0000000000000000     
  4.95049504950495073E-002   0.0000000000000000        0.0000000000000000     
  6.18811881188118806E-002   0.0000000000000000        0.0000000000000000     
  7.42574257425742540E-002   0.0000000000000000        0.0000000000000000     
  8.66336633663366273E-002   0.0000000000000000        0.0000000000000000     
  9.90099009900990007E-002   0.0000000000000000        0.0000000000000000     
  0.11138613861386137        0.0000000000000000        0.0000000000000000     
  0.12376237623762375        0.0000000000000000        0.0000000000000000     
  0.13613861386138612        0.0000000000000000        0.0000000000000000     
  0.14851485148514851        0.0000000000000000        0.0000000000000000     
  0.16089108910891090        0.0000000000000000        0.0000000000000000     
  0.17326732673267328        0.0000000000000000        0.0000000000000000     
  0.18564356435643567        0.0000000000000000        0.0000000000000000     
  0.19801980198019806        0.0000000000000000        0.0000000000000000     
  0.21039603960396044        0.0000000000000000        0.0000000000000000     
  0.22277227722772283        0.0000000000000000        0.0000000000000000     
  0.23514851485148522        0.0000000000000000        0.0000000000000000     
  0.24752475247524761        0.0000000000000000        0.0000000000000000     
  0.25990099009900997        0.0000000000000000        0.0000000000000000     
  0.27227722772277235        0.0000000000000000        0.0000000000000000     
  0.28465346534653474        0.0000000000000000        0.0000000000000000     
  0.29702970297029713        0.0000000000000000        0.0000000000000000     
  0.30940594059405951        0.0000000000000000        0.0000000000000000     
  0.32178217821782190        0.0000000000000000        0.0000000000000000     
  0.33415841584158429        0.0000000000000000        0.0000000000000000     
  0.34653465346534668        0.0000000000000000        0.0000000000000000     
  0.35891089108910906        0.0000000000000000        0.0000000000000000     
  0.37128712871287145        0.0000000000000000        0.0000000000000000     
  0.38366336633663384        0.0000000000000000        0.0000000000000000     
  0.39603960396039622        0.0000000000000000        0.0000000000000000     
  0.40841584158415861        0.0000000000000000        0.0000000000000000     
  0.42079207920792100        0.0000000000000000        0.0000000000000000     
  0.43316831683168339        0.0000000000000000        0.0000000000000000     
  0.44554455445544577        0.0000000000000000        0.0000000000000000     
  0.45792079207920816        0.0000000000000000        0.0000000000000000     
  0.47029702970297055        0.0000000000000000        0.0000000000000000     
  0.48267326732673294        0.0000000000000000        0.0000000000000000     
  0.49504950495049532        0.0000000000000000        0.0000000000000000     
  0.50742574257425765        0.0000000000000000        0.0000000000000000     
  0.51980198019802004        0.0000000000000000        0.0000000000000000     
  0.53217821782178243        0.0000000000000000        0.0000000000000000     
  0.54455445544554482        0.0000000000000000        0.0000000000000000     
  0.55693069306930720        0.0000000000000000        0.0000000000000000     
  0.56930693069306959        0.0000000000000000        0.0000000000000000     
  0.58168316831683198        0.0000000000000000        0.0000000000000000     
  0.59405940594059436        0.0000000000000000        0.0000000000000000     
  0.60643564356435675        0.0000000000000000        0.0000000000000000     
  0.61881188118811914        0.0000000000000000        0.0000000000000000     
  0.63118811881188153        0.0000000000000000        0.0000000000000000     
  0.64356435643564391        0.0000000000000000        0.0000000000000000     
  0.65594059405940630        0.0000000000000000        0.0000000000000000     
  0.66831683168316869        0.0000000000000000        0.0000000000000000     
  0.68069306930693108        0.0000000000000000        0.0000000000000000     
  0.69306930693069346        0.0000000000000000        0.0000000000000000     
  0.70544554455445585        0.0000000000000000        0.0000000000000000     
  0.71782178217821824        0.0000000000000000        0.0000000000000000     
  0.73019801980198062        0.0000000000000000        0.0000000000000000     
  0.74257425742574301        0.0000000000000000        0.0000000000000000     
  0.75495049504950540        0.0000000000000000        0.0000000000000000     
  0.76732673267326779        0.0000000000000000        0.0000000000000000     
  0.77970297029703017        0.0000000000000000        0.0000000000000000     
  0.79207920792079256        0.0000000000000000        0.0000000000000000     
  0.80445544554455495        0.0000000000000000        0.0000000000000000     
  0.81683168316831734        0.0000000000000000        0.0000000000000000     
  0.82920792079207972        0.0000000000000000        0.0000000000000000     
  0.84158415841584211        0.0000000000000000        0.0000000000000000     
  0.85396039603960450        0.0000000000000000        0.0000000000000000     
  0.86633663366336688        0.0000000000000000        0.0000000000000000     
  0.87871287128712927        0.0000000000000000        0.0000000000000000     
  0.89108910891089166        0.0000000000000000        0.0000000000000000     
  0.90346534653465405        0.0000000000000000        0.0000000000000000     
  0.91584158415841643        0.0000000000000000        0.0000000000000000     
  0.92821782178217882        0.0000000000000000        0.0000000000000000     
  0.94059405940594121        0.0000000000000000        0.0000000000000000     
  0.95297029702970359        0.0000000000000000        0.0000000000000000     
  0.96534653465346598        0.0000000000000000        0.0000000000000000     
  0.97772277227722837        0.0000000000000000        0.0000000000000000     
  0.99009900990099076        0.0000000000000000        0.0000000000000000     
   1.0024752475247531        0.0000000000000000        0.0000000000000000     
   1.0148514851485155        0.0000000000000000        0.0000000000000000     
   1.0272277227722779        0.0000000000000000        0.0000000000000000     
   1.0396039603960403        0.0000000000000000        0.0000000000000000     
   1.0519801980198027        0.0000000000000000        0.0000000000000000     
   1.0643564356435651        0.0000000000000000        0.0000000000000000     
   1.0767326732673275        0.0000000000000000        0.0000000000000000     
   1.0891089108910899        0.0000000000000000        0.0000000000000000     
   1.1014851485148522        0.0000000000000000        0.0000000000000000     
   1.1138613861386146        0.0000000000000000        0.0000000000000000     
   1.1262376237623770        0.0000000000000000        0.0000000000000000     
   1.1386138613861394        0.0000000000000000        0.0000000000000000     
   1.1509900990099018        0.0000000000000000        0.0000000000000000     
   1.1633663366336642        0.0000000000000000        0.0000000000000000     
   1.1757425742574266        0.0000000000000000        0.0000000000000000     
   1.1881188118811890        0.0000000000000000        0.0000000000000000     
   1.2004950495049513        0.0000000000000000        0.0000000000000000     
   1.2128712871287137        0.0000000000000000        0.0000000000000000     
   1.2252475247524761        0.0000000000000000        0.0000000000000000     
   1.2376237623762385        0.0000000000000000        0.0000000000000000     
   1.2500000000000009        0.0000000000000000        0.0000000000000000     
   1.2623762376237633        0.0000000000000000        0.0000000000000000     
   1.2747524752475257        0.0000000000000000        0.0000000000000000     
   1.2871287128712880        0.0000000000000000        0.0000000000000000     
   1.2995049504950504        0.0000000000000000        0.0000000000000000     
   1.3118811881188128        0.0000000000000000        0.0000000000000000     
   1.3242574257425752        0.0000000000000000        0.0000000000000000     
   1.3366336633663376        0.0000000000000000        0.0000000000000000     
   1.3490099009901000        0.0000000000000000        0.0000000000000000     
   1.3613861386138624        0.0000000000000000        0.0000000000000000     
   1.3737623762376248        0.0000000000000000        0.0000000000000000     
   1.3861386138613871        0.0000000000000000        0.0000000000000000     
   1.3985148514851495        0.0000000000000000        0.0000000000000000     
   1.4108910891089119        0.0000000000000000        0.0000000000000000     
   1.4232673267326743        0.0000000000000000        0.0000000000000000     
   1.4356435643564367        0.0000000000000000        0.0000000000000000     
   1.4480198019801991        0.0000000000000000        0.0000000000000000     
   1.4603960396039615        0.0000000000000000        0.0000000000000000     
   1.4727722772277239        0.0000000000000000        0.0000000000000000     
   1.4851485148514862        0.0000000000000000        0.0000000000000000     
   1.4975247524752486        0.0000000000000000        0.0000000000000000     
   1.5099009900990110        0.0000000000000000        0.0000000000000000     
   1.5222772277227734        0.0000000000000000        0.0000000000000000     
   1.5346534653465358        0.0000000000000000        0.0000000000000000     
   1.5470297029702982        0.0000000000000000        0.0000000000000000     
   1.5594059405940606        0.0000000000000000        0.0000000000000000     
   1.5717821782178230        0.0000000000000000        0.0000000000000000     
   1.5841584158415853        0.0000000000000000        0.0000000000000000     
   1.5965346534653477        0.0000000000000000        0.0000000000000000     
   1.6089108910891101        0.0000000000000000        0.0000000000000000     
   1.6212871287128725        0.0000000000000000        0.0000000000000000     
   1.6336633663366349        0.0000000000000000        0.0000000000000000     
   1.6460396039603973        0.0000000000000000        0.0000000000000000     
   1.6584158415841597        0.0000000000000000        0.0000000000000000     
   1.6707920792079221        0.0000000000000000        0.0000000000000000     
   1.6831683168316844        0.0000000000000000        0.0000000000000000     
   1.6955445544554468        0.0000000000000000        0.0000000000000000     
   1.7079207920792092        0.0000000000000000        0.0000000000000000     
   1.7202970297029716        0.0000000000000000        0.0000000000000000     
   1.7326732673267340        0.0000000000000000        0.0000000000000000     
   1.7450495049504964        0.0000000000000000        0.0000000000000000     
   1.7574257425742588        0.0000000000000000        0.0000000000000000     
   1.7698019801980212        0.0000000000000000        0.0000000000000000     
   1.7821782178217835        0.0000000000000000        0.0000000000000000     
   1.7945544554455459        0.0000000000000000        0.0000000000000000     
   1.8069306930693083        0.0000000000000000        0.0000000000000000     
   1.8193069306930707        0.0000000000000000        0.0000000000000000     
   1.8316831683168331        0.0000000000000000        0.0000000000000000     
   1.8440594059405955        0.0000000000000000        0.0000000000000000     
   1.8564356435643579        0.0000000000000000        0.0000000000000000     
   1.8688118811881202        0.0000000000000000        0.0000000000000000     
   1.8811881188118826        0.0000000000000000        0.0000000000000000     
   1.8935643564356450        0.0000000000000000        0.0000000000000000     
   1.9059405940594074        0.0000000000000000        0.0000000000000000     
   1.9183168316831698        0.0000000000000000        0.0000000000000000     
   1.9306930693069322        0.0000000000000000        0.0000000000000000     
   1.9430693069306946        0.0000000000000000        0.0000000000000000     
   1.9554455445544570        0.0000000000000000        0.0000000000000000     
   1.9678217821782193        0.0000000000000000        0.0000000000000000     
   1.9801980198019817        0.0000000000000000        0.0000000000000000     
   1.9925742574257441        0.0000000000000000        0.0000000000000000     
   2.0049504950495063        0.0000000000000000        0.0000000000000000     
   2.0173267326732685        0.0000000000000000        0.0000000000000000     
   2.0297029702970306        0.0000000000000000        0.0000000000000000     
   2.0420792079207928        0.0000000000000000        0.0000000000000000     
   2.0544554455445549        0.0000000000000000        0.0000000000000000     
   2.0668316831683171        0.0000000000000000        0.0000000000000000     
   2.0792079207920793        0.0000000000000000        0.0000000000000000     
   2.0915841584158414        0.0000000000000000        0.0000000000000000     
   2.1039603960396036        0.0000000000000000        0.0000000000000000     
   2.1163366336633658        0.0000000000000000        0.0000000000000000     
   2.1287128712871279        0.0000000000000000        0.0000000000000000     
   2.1410891089108901        0.0000000000000000        0.0000000000000000     
   2.1534653465346523        0.0000000000000000        0.0000000000000000     
   2.1658415841584144        0.0000000000000000        0.0000000000000000     
   2.1782178217821766        0.0000000000000000        0.0000000000000000     
   2.1905940594059388        0.0000000000000000        0.0000000000000000     
   2.2029702970297009        0.0000000000000000        0.0000000000000000     
   2.2153465346534631        0.0000000000000000        0.0000000000000000     
   2.2277227722772253        0.0000000000000000        0.0000000000000000     
   2.2400990099009874        0.0000000000000000        0.0000000000000000     
   2.2524752475247496        0.0000000000000000        0.0000000000000000     
   2.2648514851485118        0.0000000000000000        0.0000000000000000     
   2.2772277227722739        0.0000000000000000        0.0000000000000000     
   2.2896039603960361        0.0000000000000000        0.0000000000000000     
   2.3019801980197983        0.0000000000000000        0.0000000000000000     
   2.3143564356435604        0.0000000000000000        0.0000000000000000     
   2.3267326732673226        0.0000000000000000        0.0000000000000000     
   2.3391089108910847        0.0000000000000000        0.0000000000000000     
   2.3514851485148469        0.0000000000000000        0.0000000000000000     
   2.3638613861386091        0.0000000000000000        0.0000000000000000     
   2.3762376237623712        0.0000000000000000        0.0000000000000000     
   2.3886138613861334        0.0000000000000000        0.0000000000000000     
   2.4009900990098956        0.0000000000000000        0.0000000000000000     
   2.4133663366336577        0.0000000000000000        0.0000000000000000     
   2.4257425742574199        0.0000000000000000        0.0000000000000000     
   2.4381188118811821        0.0000000000000000        0.0000000000000000     
   2.4504950495049442        0.0000000000000000        0.0000000000000000     
   2.4628712871287064        0.0000000000000000        0.0000000000000000     
   2.4752475247524686        0.0000000000000000        0.0000000000000000     
   2.4876237623762307        0.0000000000000000        0.0000000000000000     
   2.4999999999999929        0.0000000000000000        0.0000000000000000     

   0.0000000000000000       1.25000000000000007E-002 -1.91548736601216685E-002
  1.23762376237623768E-002  1.25000000000000007E-002 -5.84512629922939123E-003
  2.47524752475247536E-002  1.25000000000000007E-002 -4.87218572437625799E-003
  3.71287128712871339E-002  1.25000000000000007E-002 -4.03705781175662214E-003
  4.95049504950495073E-002  1.25000000000000007E-002 -3.39821417548088036E-003
  6.18811881188118806E-002  1.25000000000000007E-002 -2.92599800354387480E-003
  7.42574257425742540E-002  1.25000000000000007E-002 -2.57544370742331628E-003
  8.66336633663366273E-002  1.25000000000000007E-002 -2.30940019046764825E-003
  9.90099009900990007E-002  1.25000000000000007E-002 -2.10180496582618300E-003
  0.11138613861386137       1.25000000000000007E-002 -1.93535833680762875E-003
  0.12376237623762375       1.25000000000000007E-002 -1.79867000642961253E-003
  0.13613861386138612       1.25000000000000007E-002 -1.68412668565331037E-003
  0.14851485148514851       1.25000000000000007E-002 -1.58650928127235095E-003
  0.16089108910891090       1.25000000000000007E-002 -1.50213772715797811E-003
  0.17326732673267328       1.25000000000000007E-002 -1.42834537672140529E-003
  0.18564356435643567       1.25000000000000007E-002 -1.36315137510746825E-003
  0.19801980198019806       1.25000000000000007E-002 -1.30505162202935641E-003
  0.21039603960396044       1.25000000000000007E-002 -1.25288182947017957E-003
  0.22277227722772283       1.25000000000000007E-002 -1.20572542146392295E-003
  0.23514851485148522       1.25000000000000007E-002 -1.16285004796947344E-003
  0.24752475247524761       1.25000000000000007E-002 -1.12366282905257344E-003
  0.25990099009900997       1.25000000000000007E-002 -1.08767815824181344E-003
  0.27227722772277235       1.25000000000000007E-002 -1.05449411571277400E-003
  0.28465346534653474       1.25000000000000007E-002 -1.02377490400809221E-003
  0.29702970297029713       1.25000000000000007E-002 -9.95237574167338185E-004
  0.30940594059405951       1.25000000000000007E-002 -9.68641859367654198E-004
  0.32178217821782190       1.25000000000000007E-002 -9.43782293443440876E-004
  0.33415841584158429       1.25000000000000007E-002 -9.20482032626897088E-004
  0.34653465346534668       1.25000000000000007E-002 -8.98587962951620306E-004
  0.35891089108910906       1.25000000000000007E-002 -8.77966789369226766E-004
  0.37128712871287145       1.25000000000000007E-002 -8.58501882478424224E-004
  0.38366336633663384       1.25000000000000007E-002 -8.40090715673906248E-004
  0.39603960396039622       1.25000000000000007E-002 -8.22642766605791165E-004
  0.40841584158415861       1.25000000000000007E-002 -8.06077786859543113E-004
  0.42079207920792100       1.25000000000000007E-002 -7.90324365952388744E-004
  0.43316831683168339       1.25000000000000007E-002 -7.75318732315272868E-004
  0.44554455445544577       1.25000000000000007E-002 -7.61003746430554523E-004
  0.45792079207920816       1.25000000000000007E-002 -7.47328050805863651E-004
  0.47029702970297055       1.25000000000000007E-002 -7.34245348752414766E-004
  0.48267326732673294       1.25000000000000007E-002 -7.21713789558963586E-004
  0.49504950495049532       1.25000000000000007E-002 -7.09695442023882328E-004
  0.50742574257425765       1.25000000000000007E-002 -6.98155841738320863E-004
  0.51980198019802004       1.25000000000000007E-002 -6.87063600234640547E-004
  0.53217821782178243       1.25000000000000007E-002 -6.76390066292395097E-004
  0.54455445544554482       1.25000000000000007E-002 -6.66109031442736559E-004
  0.55693069306930720       1.25000000000000007E-002 -6.56196473108727816E-004
  0.56930693069306959       1.25000000000000007E-002 -6.46630329923643236E-004
  0.58168316831683198       1.25000000000000007E-002 -6.37390304639336483E-004
  0.59405940594059436       1.25000000000000007E-002 -6.28457690732506583E-004
  0.60643564356435675       1.25000000000000007E-002 -6.19815219395450389E-004
  0.61881188118811914       1.25000000000000007E-002 -6.11446924102004743E-004
  0.63118811881188153       1.25000000000000007E-002 -6.03338020387263196E-004
  0.64356435643564391       1.25000000000000007E-002 -5.95474798867355755E-004
  0.65594059405940630       1.25000000000000007E-002 -5.87844529839546930E-004
  0.66831683168316869       1.25000000000000007E-002 -5.80435378036981081E-004
  0.68069306930693108       1.25000000000000007E-002 -5.73236326279011701E-004
  0.69306930693069346       1.25000000000000007E-002 -5.66237106886481037E-004
  0.70544554455445585       1.25000000000000007E-002 -5.59428139854559409E-004
  0.71782178217821824       1.25000000000000007E-002 -5.52800476913898340E-004
  0.73019801980198062       1.25000000000000007E-002 -5.46345750762035928E-004
  0.74257425742574301       1.25000000000000007E-002 -5.40056128891034477E-004
  0.75495049504950540       1.25000000000000007E-002 -5.33924271549977999E-004
  0.76732673267326779       1.25000000000000007E-002 -5.27943293449703349E-004
  0.77970297029703017       1.25000000000000007E-002 -5.22106728849023607E-004
  0.79207920792079256       1.25000000000000007E-002 -5.16408499678788465E-004
  0.80445544554455495       1.25000000000000007E-002 -5.10842886386021506E-004
  0.81683168316831734       1.25000000000000007E-002 -5.05404501226262956E-004
  0.82920792079207972       1.25000000000000007E-002 -5.00088263791259547E-004
  0.84158415841584211       1.25000000000000007E-002 -4.94889378612057814E-004
  0.85396039603960450       1.25000000000000007E-002 -4.89803314705788474E-004
  0.86633663366336688       1.25000000000000007E-002 -4.84825786932101873E-004
  0.87871287128712927       1.25000000000000007E-002 -4.79952739002847972E-004
  0.89108910891089166       1.25000000000000007E-002 -4.75180327966852854E-004
  0.90346534653465405       1.25000000000000007E-002 -4.70504909989410546E-004
  0.91584158415841643       1.25000000000000007E-002 -4.65923027270280358E-004
  0.92821782178217882       1.25000000000000007E-002 -4.61431395986156511E-004
  0.94059405940594121       1.25000000000000007E-002 -4.57026895184998528E-004
  0.95297029702970359       1.25000000000000007E-002 -4.52706556581268852E-004
  0.96534653465346598       1.25000000000000007E-002 -4.48467555193976758E-004
  0.97772277227722837       1.25000000000000007E-002 -4.44307200739978364E-004
  0.99009900990099076       1.25000000000000007E-002 -4.40222929662760498E-004
   1.0024752475247531       1.25000000000000007E-002 -4.36212297664795214E-004
   1.0148514851485155       1.25000000000000007E-002 -4.32272972632635440E-004
   1.0272277227722779       1.25000000000000007E-002 -4.28402727893094576E-004
   1.0396039603960403       1.25000000000000007E-002 -4.24599435794277785E-004
   1.0519801980198027       1.25000000000000007E-002 -4.20861061640391326E-004
   1.0643564356435651       1.25000000000000007E-002 -4.17185658008854907E-004
   1.0767326732673275       1.25000000000000007E-002 -4.13571359447829630E-004
   1.0891089108910899       1.25000000000000007E-002 -4.10016377515065296E-004
   1.1014851485148522       1.25000000000000007E-002 -4.06518996101447826E-004
   1.1138613861386146       1.25000000000000007E-002 -4.03077566997789760E-004
   1.1262376237623770       1.25000000000000007E-002 -3.99690505702517259E-004
   1.1386138613861394       1.25000000000000007E-002 -3.96356287505873815E-004
   1.1509900990099018       1.25000000000000007E-002 -3.93073443897597901E-004
   1.1633663366336642       1.25000000000000007E-002 -3.89840559320281355E-004
   1.1757425742574266       1.25000000000000007E-002 -3.86656268242975283E-004
   1.1881188118811890       1.25000000000000007E-002 -3.83519252487403515E-004
   1.2004950495049513       1.25000000000000007E-002 -3.80428238728224672E-004
   1.2128712871287137       1.25000000000000007E-002 -3.77381996115966605E-004
   1.2252475247524761       1.25000000000000007E-002 -3.74379334019058656E-004
   1.2376237623762385       1.25000000000000007E-002 -3.71419099918492103E-004
   1.2500000000000009       1.25000000000000007E-002 -3.68500177489900014E-004
   1.2623762376237633       1.25000000000000007E-002 -3.65621484871177173E-004
   1.2747524752475257       1.25000000000000007E-002 -3.62781973062516259E-004
   1.2871287128712880       1.25000000000000007E-002 -3.59980624374088923E-004
   1.2995049504950504       1.25000000000000007E-002 -3.57216450847192305E-004
   1.3118811881188128       1.25000000000000007E-002 -3.54488492623566259E-004
   1.3242574257425752       1.25000000000000007E-002 -3.51795816296645745E-004
   1.3366336633663376       1.25000000000000007E-002 -3.49137513313813020E-004
   1.3490099009901000       1.25000000000000007E-002 -3.46512698491869100E-004
   1.3613861386138624       1.25000000000000007E-002 -3.43920508666439157E-004
   1.3737623762376248       1.25000000000000007E-002 -3.41360101446764588E-004
   1.3861386138613871       1.25000000000000007E-002 -3.38830654019192841E-004
   1.3985148514851495       1.25000000000000007E-002 -3.36331361950018178E-004
   1.4108910891089119       1.25000000000000007E-002 -3.33861437974605931E-004
   1.4232673267326743       1.25000000000000007E-002 -3.31420110802903170E-004
   1.4356435643564367       1.25000000000000007E-002 -3.29006623996583477E-004
   1.4480198019801991       1.25000000000000007E-002 -3.26620234965621301E-004
   1.4603960396039615       1.25000000000000007E-002 -3.24260214095723343E-004
   1.4727722772277239       1.25000000000000007E-002 -3.21925843973310108E-004
   1.4851485148514862       1.25000000000000007E-002 -3.19616418647877430E-004
   1.4975247524752486       1.25000000000000007E-002 -3.17331242878584447E-004
   1.5099009900990110       1.25000000000000007E-002 -3.15069631347772037E-004
   1.5222772277227734       1.25000000000000007E-002 -3.12830907865406657E-004
   1.5346534653465358       1.25000000000000007E-002 -3.10614404609064858E-004
   1.5470297029702982       1.25000000000000007E-002 -3.08419461432745789E-004
   1.5594059405940606       1.25000000000000007E-002 -3.06245425244472034E-004
   1.5717821782178230       1.25000000000000007E-002 -3.04091649419771797E-004
   1.5841584158415853       1.25000000000000007E-002 -3.01957493205084137E-004
   1.5965346534653477       1.25000000000000007E-002 -2.99842321077896888E-004
   1.6089108910891101       1.25000000000000007E-002 -2.97745502061579569E-004
   1.6212871287128725       1.25000000000000007E-002 -2.95666409027345290E-004
   1.6336633663366349       1.25000000000000007E-002 -2.93604418036809206E-004
   1.6460396039603973       1.25000000000000007E-002 -2.91558907773489166E-004
   1.6584158415841597       1.25000000000000007E-002 -2.89529259079085238E-004
   1.6707920792079221       1.25000000000000007E-002 -2.87514854566327531E-004
   1.6831683168316844       1.25000000000000007E-002 -2.85515078252368743E-004
   1.6955445544554468       1.25000000000000007E-002 -2.83529315166660323E-004
   1.7079207920792092       1.25000000000000007E-002 -2.81556950931888055E-004
   1.7202970297029716       1.25000000000000007E-002 -2.79597371367849151E-004
   1.7326732673267340       1.25000000000000007E-002 -2.77649962194357431E-004
   1.7450495049504964       1.25000000000000007E-002 -2.75714108898535138E-004
   1.7574257425742588       1.25000000000000007E-002 -2.73789196796401634E-004
   1.7698019801980212       1.25000000000000007E-002 -2.71874611278503312E-004
   1.7821782178217835       1.25000000000000007E-002 -2.69969738197622716E-004
   1.7945544554455459       1.25000000000000007E-002 -2.68073964342187938E-004
   1.8069306930693083       1.25000000000000007E-002 -2.66186677954834486E-004
   1.8193069306930707       1.25000000000000007E-002 -2.64307269310023205E-004
   1.8316831683168331       1.25000000000000007E-002 -2.62435131438686368E-004
   1.8440594059405955       1.25000000000000007E-002 -2.60569661132335501E-004
   1.8564356435643579       1.25000000000000007E-002 -2.58710260333036535E-004
   1.8688118811881202       1.25000000000000007E-002 -2.56856337933469533E-004
   1.8811881188118826       1.25000000000000007E-002 -2.55007311939040265E-004
   1.8935643564356450       1.25000000000000007E-002 -2.53162611937126432E-004
   1.9059405940594074       1.25000000000000007E-002 -2.51321681866915458E-004
   1.9183168316831698       1.25000000000000007E-002 -2.49483983130453020E-004
   1.9306930693069322       1.25000000000000007E-002 -2.47648998099994524E-004
   1.9430693069306946       1.25000000000000007E-002 -2.45816234084907592E-004
   1.9554455445544570       1.25000000000000007E-002 -2.43985227856264539E-004
   1.9678217821782193       1.25000000000000007E-002 -2.42155550861451724E-004
   1.9801980198019817       1.25000000000000007E-002 -2.40326815225633326E-004
   1.9925742574257441       1.25000000000000007E-002 -2.38498680520778664E-004
   2.0049504950495063       1.25000000000000007E-002 -2.36670861182449349E-004
   2.0173267326732685       1.25000000000000007E-002 -2.34843134480618794E-004
   2.0297029702970306       1.25000000000000007E-002 -2.33015349090451307E-004
   2.0420792079207928       1.25000000000000007E-002 -2.31187434423391433E-004
   2.0544554455445549       1.25000000000000007E-002 -2.29359410858056423E-004
   2.0668316831683171       1.25000000000000007E-002 -2.27531400892831898E-004
   2.0792079207920793       1.25000000000000007E-002 -2.25703641152558187E-004
   2.0915841584158414       1.25000000000000007E-002 -2.23876495181284536E-004
   2.1039603960396036       1.25000000000000007E-002 -2.22050466991584349E-004
   2.1163366336633658       1.25000000000000007E-002 -2.20226215341080378E-004
   2.1287128712871279       1.25000000000000007E-002 -2.18404568649210705E-004
   2.1410891089108901       1.25000000000000007E-002 -2.16586540388377739E-004
   2.1534653465346523       1.25000000000000007E-002 -2.14773344724075211E-004