 variables = "x","y","T"
 zone i=         203 , j=          81 , f=point
   0.0000000000000000        0.0000000000000000        0.0000000000000000     
  1.23762376237623768E-002   0.0000000000000000        1.0000000000000000     
  2.47524752475247536E-002   0.0000000000000000        1.0000000000000000     
  3.71287128712871339E-002   0.0000000000000000        1.0000000000000000     
  4.95049504950495073E-002   0.0000000000000000        1.0000000000000000     
  6.18811881188118806E-002   0.0000000000000000        1.0000000000000000     
  7.42574257425742540E-002   0.0000000000000000        1.0000000000000000     
  8.66336633663366273E-002   0.0000000000000000        1.0000000000000000     
  9.90099009900990007E-002   0.0000000000000000        1.0000000000000000     
  0.11138613861386137        0.0000000000000000        1.0000000000000000     
  0.12376237623762375        0.0000000000000000        1.0000000000000000     
  0.13613861386138612        0.0000000000000000        1.0000000000000000     
  0.14851485148514851        0.0000000000000000        1.0000000000000000     
  0.16089108910891090        0.0000000000000000        1.0000000000000000     
  0.17326732673267328        0.0000000000000000        1.0000000000000000     
  0.18564356435643567        0.0000000000000000        1.0000000000000000     
  0.19801980198019806        0.0000000000000000        1.0000000000000000     
  0.21039603960396044        0.0000000000000000        1.0000000000000000     
  0.22277227722772283        0.0000000000000000        1.0000000000000000     
  0.23514851485148522        0.0000000000000000        1.0000000000000000     
  0.24752475247524761        0.0000000000000000        1.0000000000000000     
  0.25990099009900997        0.0000000000000000        1.0000000000000000     
  0.27227722772277235        0.0000000000000000        1.0000000000000000     
  0.28465346534653474        0.0000000000000000        1.0000000000000000     
  0.29702970297029713        0.0000000000000000        1.0000000000000000     
  0.30940594059405951        0.0000000000000000        1.0000000000000000     
  0.32178217821782190        0.0000000000000000        1.0000000000000000     
  0.33415841584158429        0.0000000000000000        1.0000000000000000     
  0.34653465346534668        0.0000000000000000        1.0000000000000000     
  0.35891089108910906        0.0000000000000000        1.0000000000000000     
  0.37128712871287145        0.0000000000000000        1.0000000000000000     
  0.38366336633663384        0.0000000000000000        1.0000000000000000     
  0.39603960396039622        0.0000000000000000        1.0000000000000000     
  0.40841584158415861        0.0000000000000000        1.0000000000000000     
  0.42079207920792100        0.0000000000000000        1.0000000000000000     
  0.43316831683168339        0.0000000000000000        1.0000000000000000     
  0.44554455445544577        0.0000000000000000        1.0000000000000000     
  0.45792079207920816        0.0000000000000000        1.0000000000000000     
  0.47029702970297055        0.0000000000000000        1.0000000000000000     
  0.48267326732673294        0.0000000000000000        1.0000000000000000     
  0.49504950495049532        0.0000000000000000        1.0000000000000000     
  0.50742574257425765        0.0000000000000000        1.0000000000000000     
  0.51980198019802004        0.0000000000000000        1.0000000000000000     
  0.53217821782178243        0.0000000000000000        1.0000000000000000     
  0.54455445544554482        0.0000000000000000        1.0000000000000000     
  0.55693069306930720        0.0000000000000000        1.0000000000000000     
  0.56930693069306959        0.0000000000000000        1.0000000000000000     
  0.58168316831683198        0.0000000000000000        1.0000000000000000     
  0.59405940594059436        0.0000000000000000        1.0000000000000000     
  0.60643564356435675        0.0000000000000000        1.0000000000000000     
  0.61881188118811914        0.0000000000000000        1.0000000000000000     
  0.63118811881188153        0.0000000000000000        1.0000000000000000     
  0.64356435643564391        0.0000000000000000        1.0000000000000000     
  0.65594059405940630        0.0000000000000000        1.0000000000000000     
  0.66831683168316869        0.0000000000000000        1.0000000000000000     
  0.68069306930693108        0.0000000000000000        1.0000000000000000     
  0.69306930693069346        0.0000000000000000        1.0000000000000000     
  0.70544554455445585        0.0000000000000000        1.0000000000000000     
  0.71782178217821824        0.0000000000000000        1.0000000000000000     
  0.73019801980198062        0.0000000000000000        1.0000000000000000     
  0.74257425742574301        0.0000000000000000        1.0000000000000000     
  0.75495049504950540        0.0000000000000000        1.0000000000000000     
  0.76732673267326779        0.0000000000000000        1.0000000000000000     
  0.77970297029703017        0.0000000000000000        1.0000000000000000     
  0.79207920792079256        0.0000000000000000        1.0000000000000000     
  0.80445544554455495        0.0000000000000000        1.0000000000000000     
  0.81683168316831734        0.0000000000000000        1.0000000000000000     
  0.82920792079207972        0.0000000000000000        1.0000000000000000     
  0.84158415841584211        0.0000000000000000        1.0000000000000000     
  0.85396039603960450        0.0000000000000000        1.0000000000000000     
  0.86633663366336688        0.0000000000000000        1.0000000000000000     
  0.87871287128712927        0.0000000000000000        1.0000000000000000     
  0.89108910891089166        0.0000000000000000        1.0000000000000000     
  0.90346534653465405        0.0000000000000000        1.0000000000000000     
  0.91584158415841643        0.0000000000000000        1.0000000000000000     
  0.92821782178217882        0.0000000000000000        1.0000000000000000     
  0.94059405940594121        0.0000000000000000        1.0000000000000000     
  0.95297029702970359        0.0000000000000000        1.0000000000000000     
  0.96534653465346598        0.0000000000000000        1.0000000000000000     
  0.97772277227722837        0.0000000000000000        1.0000000000000000     
  0.99009900990099076        0.0000000000000000        1.0000000000000000     
   1.0024752475247531        0.0000000000000000        1.0000000000000000     
   1.0148514851485155        0.0000000000000000        1.0000000000000000     
   1.0272277227722779        0.0000000000000000        1.0000000000000000     
   1.0396039603960403        0.0000000000000000        1.0000000000000000     
   1.0519801980198027        0.0000000000000000        1.0000000000000000     
   1.0643564356435651        0.0000000000000000        1.0000000000000000     
   1.0767326732673275        0.0000000000000000        1.0000000000000000     
   1.0891089108910899        0.0000000000000000        1.0000000000000000     
   1.1014851485148522        0.0000000000000000        1.0000000000000000     
   1.1138613861386146        0.0000000000000000        1.0000000000000000     
   1.1262376237623770        0.0000000000000000        1.0000000000000000     
   1.1386138613861394        0.0000000000000000        1.0000000000000000     
   1.1509900990099018        0.0000000000000000        1.0000000000000000     
   1.1633663366336642        0.0000000000000000        1.0000000000000000     
   1.1757425742574266        0.0000000000000000        1.0000000000000000     
   1.1881188118811890        0.0000000000000000        1.0000000000000000     
   1.2004950495049513        0.0000000000000000        1.0000000000000000     
   1.2128712871287137        0.0000000000000000        1.0000000000000000     
   1.2252475247524761        0.0000000000000000        1.0000000000000000     
   1.2376237623762385        0.0000000000000000        1.0000000000000000     
   1.2500000000000009        0.0000000000000000        1.0000000000000000     
   1.2623762376237633        0.0000000000000000        1.0000000000000000     
   1.2747524752475257        0.0000000000000000        1.0000000000000000     
   1.2871287128712880        0.0000000000000000        1.0000000000000000     
   1.2995049504950504        0.0000000000000000        1.0000000000000000     
   1.3118811881188128        0.0000000000000000        1.0000000000000000     
   1.3242574257425752        0.0000000000000000        1.0000000000000000     
   1.3366336633663376        0.0000000000000000        1.0000000000000000     
   1.3490099009901000        0.0000000000000000        1.0000000000000000     
   1.3613861386138624        0.0000000000000000        1.0000000000000000     
   1.3737623762376248        0.0000000000000000        1.0000000000000000     
   1.3861386138613871        0.0000000000000000        1.0000000000000000     
   1.3985148514851495        0.0000000000000000        1.0000000000000000     
   1.4108910891089119        0.0000000000000000        1.0000000000000000     
   1.4232673267326743        0.0000000000000000        1.0000000000000000     
   1.4356435643564367        0.0000000000000000        1.0000000000000000     
   1.4480198019801991        0.0000000000000000        1.0000000000000000     
   1.4603960396039615        0.0000000000000000        1.0000000000000000     
   1.4727722772277239        0.0000000000000000        1.0000000000000000     
   1.4851485148514862        0.0000000000000000        1.0000000000000000     
   1.4975247524752486        0.0000000000000000        1.0000000000000000     
   1.5099009900990110        0.0000000000000000        1.0000000000000000     
   1.5222772277227734        0.0000000000000000        1.0000000000000000     
   1.5346534653465358        0.0000000000000000        1.0000000000000000     
   1.5470297029702982        0.0000000000000000        1.0000000000000000     
   1.5594059405940606        0.0000000000000000        1.0000000000000000     
   1.5717821782178230        0.0000000000000000        1.0000000000000000     
   1.5841584158415853        0.0000000000000000        1.0000000000000000     
   1.5965346534653477        0.0000000000000000        1.0000000000000000     
   1.6089108910891101        0.0000000000000000        1.0000000000000000     
   1.6212871287128725        0.0000000000000000        1.0000000000000000     
   1.6336633663366349        0.0000000000000000        1.0000000000000000     
   1.6460396039603973        0.0000000000000000        1.0000000000000000     
   1.6584158415841597        0.0000000000000000        1.0000000000000000     
   1.6707920792079221        0.0000000000000000        1.0000000000000000     
   1.6831683168316844        0.0000000000000000        1.0000000000000000     
   1.6955445544554468        0.0000000000000000        1.0000000000000000     
   1.7079207920792092        0.0000000000000000        1.0000000000000000     
   1.7202970297029716        0.0000000000000000        1.0000000000000000     
   1.7326732673267340        0.0000000000000000        1.0000000000000000     
   1.7450495049504964        0.0000000000000000        1.0000000000000000     
   1.7574257425742588        0.0000000000000000        1.0000000000000000     
   1.7698019801980212        0.0000000000000000        1.0000000000000000     
   1.7821782178217835        0.0000000000000000        1.0000000000000000     
   1.7945544554455459        0.0000000000000000        1.0000000000000000     
   1.8069306930693083        0.0000000000000000        1.0000000000000000     
   1.8193069306930707        0.0000000000000000        1.0000000000000000     
   1.8316831683168331        0.0000000000000000        1.0000000000000000     
   1.8440594059405955        0.0000000000000000        1.0000000000000000     
   1.8564356435643579        0.0000000000000000        1.0000000000000000     
   1.8688118811881202        0.0000000000000000        1.0000000000000000     
   1.8811881188118826        0.0000000000000000        1.0000000000000000     
   1.8935643564356450        0.0000000000000000        1.0000000000000000     
   1.9059405940594074        0.0000000000000000        1.0000000000000000     
   1.9183168316831698        0.0000000000000000        1.0000000000000000     
   1.9306930693069322        0.0000000000000000        1.0000000000000000     
   1.9430693069306946        0.0000000000000000        1.0000000000000000     
   1.9554455445544570        0.0000000000000000        1.0000000000000000     
   1.9678217821782193        0.0000000000000000        1.0000000000000000     
   1.9801980198019817        0.0000000000000000        1.0000000000000000     
   1.9925742574257441        0.0000000000000000        1.0000000000000000     
   2.0049504950495063        0.0000000000000000        1.0000000000000000     
   2.0173267326732685        0.0000000000000000        1.0000000000000000     
   2.0297029702970306        0.0000000000000000        1.0000000000000000     
   2.0420792079207928        0.0000000000000000        1.0000000000000000     
   2.0544554455445549        0.0000000000000000        1.0000000000000000     
   2.0668316831683171        0.0000000000000000        1.0000000000000000     
   2.0792079207920793        0.0000000000000000        1.0000000000000000     
   2.0915841584158414        0.0000000000000000        1.0000000000000000     
   2.1039603960396036        0.0000000000000000        1.0000000000000000     
   2.1163366336633658        0.0000000000000000        1.0000000000000000     
   2.1287128712871279        0.0000000000000000        1.0000000000000000     
   2.1410891089108901        0.0000000000000000        1.0000000000000000     
   2.1534653465346523        0.0000000000000000        1.0000000000000000     
   2.1658415841584144        0.0000000000000000        1.0000000000000000     
   2.1782178217821766        0.0000000000000000        1.0000000000000000     
   2.1905940594059388        0.0000000000000000        1.0000000000000000     
   2.2029702970297009        0.0000000000000000        1.0000000000000000     
   2.2153465346534631        0.0000000000000000        1.0000000000000000     
   2.2277227722772253        0.0000000000000000        1.0000000000000000     
   2.2400990099009874        0.0000000000000000        1.0000000000000000     
   2.2524752475247496        0.0000000000000000        1.0000000000000000     
   2.2648514851485118        0.0000000000000000        1.0000000000000000     
   2.2772277227722739        0.0000000000000000        1.0000000000000000     
   2.2896039603960361        0.0000000000000000        1.0000000000000000     
   2.3019801980197983        0.0000000000000000        1.0000000000000000     
   2.3143564356435604        0.0000000000000000        1.0000000000000000     
   2.3267326732673226        0.0000000000000000        1.0000000000000000     
   2.3391089108910847        0.0000000000000000        1.0000000000000000     
   2.3514851485148469        0.0000000000000000        1.0000000000000000     
   2.3638613861386091        0.0000000000000000        1.0000000000000000     
   2.3762376237623712        0.0000000000000000        1.0000000000000000     
   2.3886138613861334        0.0000000000000000        1.0000000000000000     
   2.4009900990098956        0.0000000000000000        1.0000000000000000     
   2.4133663366336577        0.0000000000000000        1.0000000000000000     
   2.4257425742574199        0.0000000000000000        1.0000000000000000     
   2.4381188118811821        0.0000000000000000        1.0000000000000000     
   2.4504950495049442        0.0000000000000000        1.0000000000000000     
   2.4628712871287064        0.0000000000000000        1.0000000000000000     
   2.4752475247524686        0.0000000000000000        1.0000000000000000     
   2.4876237623762307        0.0000000000000000        1.0000000000000000     
   2.4999999999999929        0.0000000000000000        1.0000000000000000     

   0.0000000000000000       1.25000000000000007E-002   0.0000000000000000     
  1.23762376237623768E-002  1.25000000000000007E-002  0.10906523536408913     
  2.47524752475247536E-002  1.25000000000000007E-002  0.24506181117026568     
  3.71287128712871339E-002  1.25000000000000007E-002  0.38304736618717383     
  4.95049504950495073E-002  1.25000000000000007E-002  0.49417339532533111     
  6.18811881188118806E-002  1.25000000000000007E-002  0.57170886019611633     
  7.42574257425742540E-002  1.25000000000000007E-002  0.62370638981517379     
  8.66336633663366273E-002  1.25000000000000007E-002  0.65978477925828338     
  9.90099009900990007E-002  1.25000000000000007E-002  0.68644853586414556     
  0.11138613861386137       1.25000000000000007E-002  0.70735339232053229     
  0.12376237623762375       1.25000000000000007E-002  0.72446653351418733     
  0.13613861386138612       1.25000000000000007E-002  0.73888843650292035     
  0.14851485148514851       1.25000000000000007E-002  0.75128709564076790     
  0.16089108910891090       1.25000000000000007E-002  0.76210440134533364     
  0.17326732673267328       1.25000000000000007E-002  0.77165286613123030     
  0.18564356435643567       1.25000000000000007E-002  0.78016356370494577     
  0.19801980198019806       1.25000000000000007E-002  0.78781240701161892     
  0.21039603960396044       1.25000000000000007E-002  0.79473614434613771     
  0.22277227722772283       1.25000000000000007E-002  0.80104288562434067     
  0.23514851485148522       1.25000000000000007E-002  0.80681936410958111     
  0.24752475247524761       1.25000000000000007E-002  0.81213608582330699     
  0.25990099009900997       1.25000000000000007E-002  0.81705104960359631     
  0.27227722772277235       1.25000000000000007E-002  0.82161247694903250     
  0.28465346534653474       1.25000000000000007E-002  0.82586084536821003     
  0.29702970297029713       1.25000000000000007E-002  0.82983042514490579     
  0.30940594059405951       1.25000000000000007E-002  0.83355045702489050     
  0.32178217821782190       1.25000000000000007E-002  0.83704606643150326     
  0.33415841584158429       1.25000000000000007E-002  0.84033898154822784     
  0.34653465346534668       1.25000000000000007E-002  0.84344810338928455     
  0.35891089108910906       1.25000000000000007E-002  0.84638996276425604     
  0.37128712871287145       1.25000000000000007E-002  0.84917908982317125     
  0.38366336633663384       1.25000000000000007E-002  0.85182831533605630     
  0.39603960396039622       1.25000000000000007E-002  0.85434901816180797     
  0.40841584158415861       1.25000000000000007E-002  0.85675132993334835     
  0.42079207920792100       1.25000000000000007E-002  0.85904430545378496     
  0.43316831683168339       1.25000000000000007E-002  0.86123606540674247     
  0.44554455445544577       1.25000000000000007E-002  0.86333391655651603     
  0.45792079207920816       1.25000000000000007E-002  0.86534445352652178     
  0.47029702970297055       1.25000000000000007E-002  0.86727364540950047     
  0.48267326732673294       1.25000000000000007E-002  0.86912690981641727     
  0.49504950495049532       1.25000000000000007E-002  0.87090917646679022     
  0.50742574257425765       1.25000000000000007E-002  0.87262494202694774     
  0.51980198019802004       1.25000000000000007E-002  0.87427831758912478     
  0.53217821782178243       1.25000000000000007E-002  0.87587306993429093     
  0.54455445544554482       1.25000000000000007E-002  0.87741265752102804     
  0.55693069306930720       1.25000000000000007E-002  0.87890026198087312     
  0.56930693069306959       1.25000000000000007E-002  0.88033881576957429     
  0.58168316831683198       1.25000000000000007E-002  0.88173102651721258     
  0.59405940594059436       1.25000000000000007E-002  0.88307939853356376     
  0.60643564356435675       1.25000000000000007E-002  0.88438625185406672     
  0.61881188118811914       1.25000000000000007E-002  0.88565373915316825     
  0.63118811881188153       1.25000000000000007E-002  0.88688386080285264     
  0.64356435643564391       1.25000000000000007E-002  0.88807847831287878     
  0.65594059405940630       1.25000000000000007E-002  0.88923932635450731     
  0.66831683168316869       1.25000000000000007E-002  0.89036802354030964     
  0.68069306930693108       1.25000000000000007E-002  0.89146608210859202     
  0.69306930693069346       1.25000000000000007E-002  0.89253491664108697     
  0.70544554455445585       1.25000000000000007E-002  0.89357585192617461     
  0.71782178217821824       1.25000000000000007E-002  0.89459013006582322     
  0.73019801980198062       1.25000000000000007E-002  0.89557891691211289     
  0.74257425742574301       1.25000000000000007E-002  0.89654330790794101     
  0.75495049504950540       1.25000000000000007E-002  0.89748433339662537     
  0.76732673267326779       1.25000000000000007E-002  0.89840296345647752     
  0.77970297029703017       1.25000000000000007E-002  0.89930011230942952     
  0.79207920792079256       1.25000000000000007E-002  0.90017664234713779     
  0.80445544554455495       1.25000000000000007E-002  0.90103336781340826     
  0.81683168316831734       1.25000000000000007E-002  0.90187105817769675     
  0.82920792079207972       1.25000000000000007E-002  0.90269044123045628     
  0.84158415841584211       1.25000000000000007E-002  0.90349220592728974     
  0.85396039603960450       1.25000000000000007E-002  0.90427700500527786     
  0.86633663366336688       1.25000000000000007E-002  0.90504545739196507     
  0.87871287128712927       1.25000000000000007E-002  0.90579815042531153     
  0.89108910891089166       1.25000000000000007E-002  0.90653564190144464     
  0.90346534653465405       1.25000000000000007E-002  0.90725846196588367     
  0.91584158415841643       1.25000000000000007E-002  0.90796711486263082     
  0.92821782178217882       1.25000000000000007E-002  0.90866208055399356     
  0.94059405940594121       1.25000000000000007E-002  0.90934381622224569     
  0.95297029702970359       1.25000000000000007E-002  0.91001275766247769     
  0.96534653465346598       1.25000000000000007E-002  0.91066932057476768     
  0.97772277227722837       1.25000000000000007E-002  0.91131390176309401     
  0.99009900990099076       1.25000000000000007E-002  0.91194688024828485     
   1.0024752475247531       1.25000000000000007E-002  0.91256861830239766     
   1.0148514851485155       1.25000000000000007E-002  0.91317946241173586     
   1.0272277227722779       1.25000000000000007E-002  0.91377974417509278     
   1.0396039603960403       1.25000000000000007E-002  0.91436978114282008     
   1.0519801980198027       1.25000000000000007E-002  0.91494987760120272     
   1.0643564356435651       1.25000000000000007E-002  0.91552032530585759     
   1.0767326732673275       1.25000000000000007E-002  0.91608140416757700     
   1.0891089108910899       1.25000000000000007E-002  0.91663338289410612     
   1.1014851485148522       1.25000000000000007E-002  0.91717651959151980     
   1.1138613861386146       1.25000000000000007E-002  0.91771106232881472     
   1.1262376237623770       1.25000000000000007E-002  0.91823724966895148     
   1.1386138613861394       1.25000000000000007E-002  0.91875531116897047     
   1.1509900990099018       1.25000000000000007E-002  0.91926546785117713     
   1.1633663366336642       1.25000000000000007E-002  0.91976793264695755     
   1.1757425742574266       1.25000000000000007E-002  0.92026291081476630     
   1.1881188118811890       1.25000000000000007E-002  0.92075060033396861     
   1.2004950495049513       1.25000000000000007E-002  0.92123119227644201     
   1.2128712871287137       1.25000000000000007E-002  0.92170487115786148     
   1.2252475247524761       1.25000000000000007E-002  0.92217181527024461     
   1.2376237623762385       1.25000000000000007E-002  0.92263219699682641     
   1.2500000000000009       1.25000000000000007E-002  0.92308618310980994     
   1.2623762376237633       1.25000000000000007E-002  0.92353393505143844     
   1.2747524752475257       1.25000000000000007E-002  0.92397560919903721     
   1.2871287128712880       1.25000000000000007E-002  0.92441135711524358     
   1.2995049504950504       1.25000000000000007E-002  0.92484132578495948     
   1.3118811881188128       1.25000000000000007E-002  0.92526565784058445     
   1.3242574257425752       1.25000000000000007E-002  0.92568449177655210     
   1.3366336633663376       1.25000000000000007E-002  0.92609796215357487     
   1.3490099009901000       1.25000000000000007E-002  0.92650619979252402     
   1.3613861386138624       1.25000000000000007E-002  0.92690933195796577     
   1.3737623762376248       1.25000000000000007E-002  0.92730748253179707     
   1.3861386138613871       1.25000000000000007E-002  0.92770077217810132     
   1.3985148514851495       1.25000000000000007E-002  0.92808931850065979     
   1.4108910891089119       1.25000000000000007E-002  0.92847323619452671     
   1.4232673267326743       1.25000000000000007E-002  0.92885263719249100     
   1.4356435643564367       1.25000000000000007E-002  0.92922763080667226     
   1.4480198019801991       1.25000000000000007E-002  0.92959832386491714     
   1.4603960396039615       1.25000000000000007E-002  0.92996482084174670     
   1.4727722772277239       1.25000000000000007E-002  0.93032722398392531     
   1.4851485148514862       1.25000000000000007E-002  0.93068563343138189     
   1.4975247524752486       1.25000000000000007E-002  0.93104014733459295     
   1.5099009900990110       1.25000000000000007E-002  0.93139086196946941     
   1.5222772277227734       1.25000000000000007E-002  0.93173787185022994     
   1.5346534653465358       1.25000000000000007E-002  0.93208126984005824     
   1.5470297029702982       1.25000000000000007E-002  0.93242114725874736     
   1.5594059405940606       1.25000000000000007E-002  0.93275759398649638     
   1.5717821782178230       1.25000000000000007E-002  0.93309069856340776     
   1.5841584158415853       1.25000000000000007E-002  0.93342054828491616     
   1.5965346534653477       1.25000000000000007E-002  0.93374722929396647     
   1.6089108910891101       1.25000000000000007E-002  0.93407082667092367     
   1.6212871287128725       1.25000000000000007E-002  0.93439142452161805     
   1.6336633663366349       1.25000000000000007E-002  0.93470910606292856     
   1.6460396039603973       1.25000000000000007E-002  0.93502395370437064     
   1.6584158415841597       1.25000000000000007E-002  0.93533604912401191     
   1.6707920792079221       1.25000000000000007E-002  0.93564547333778070     
   1.6831683168316844       1.25000000000000007E-002  0.93595230676242946     
   1.6955445544554468       1.25000000000000007E-002  0.93625662927316788     
   1.7079207920792092       1.25000000000000007E-002  0.93655852025668085     
   1.7202970297029716       1.25000000000000007E-002  0.93685805865917526     
   1.7326732673267340       1.25000000000000007E-002  0.93715532302785209     
   1.7450495049504964       1.25000000000000007E-002  0.93745039154371956     
   1.7574257425742588       1.25000000000000007E-002  0.93774334204378296     
   1.7698019801980212       1.25000000000000007E-002  0.93803425203124957     
   1.7821782178217835       1.25000000000000007E-002  0.93832319867287961     
   1.7945544554455459       1.25000000000000007E-002  0.93861025878297455     
   1.8069306930693083       1.25000000000000007E-002  0.93889550879386319     
   1.8193069306930707       1.25000000000000007E-002  0.93917902471248960     
   1.8316831683168331       1.25000000000000007E-002  0.93946088206160272     
   1.8440594059405955       1.25000000000000007E-002  0.93974115580217432     
   1.8564356435643579       1.25000000000000007E-002  0.94001992023231296     
   1.8688118811881202       1.25000000000000007E-002  0.94029724885814137     
   1.8811881188118826       1.25000000000000007E-002  0.94057321423335793     
   1.8935643564356450       1.25000000000000007E-002  0.94084788776512052     
   1.9059405940594074       1.25000000000000007E-002  0.94112133948350474     
   1.9183168316831698       1.25000000000000007E-002  0.94139363777059804     
   1.9306930693069322       1.25000000000000007E-002  0.94166484904472525     
   1.9430693069306946       1.25000000000000007E-002  0.94193503739519602     
   1.9554455445544570       1.25000000000000007E-002  0.94220426416258274     
   1.9678217821782193       1.25000000000000007E-002  0.94247258745819862     
   1.9801980198019817       1.25000000000000007E-002  0.94274006161492263     
   1.9925742574257441       1.25000000000000007E-002  0.94300673656147616     
   2.0049504950495063       1.25000000000000007E-002  0.94327265711464658     
   2.0173267326732685       1.25000000000000007E-002  0.94353786218718649     
   2.0297029702970306       1.25000000000000007E-002  0.94380238391009408     
   2.0420792079207928       1.25000000000000007E-002  0.94406624666591188     
   2.0544554455445549       1.25000000000000007E-002  0.94432946602748347     
   2.0668316831683171       1.25000000000000007E-002  0.94459204759787108     
   2.0792079207920793       1.25000000000000007E-002  0.94485398575122514     
   2.0915841584158414       1.25000000000000007E-002  0.94511526227770781     
   2.1039603960396036       1.25000000000000007E-002  0.94537584493698490     
   2.1163366336633658       1.25000000000000007E-002  0.94563568592691438     
   2.1287128712871279       1.25000000000000007E-002  0.94589472027847910     
   2.1410891089108901       1.25000000000000007E-002  0.94615286419372935     
   2.1534653465346523       1.25000000000000007E-002  0.94641001334866548     