 variables = "x","y","v"
 zone i=         203 , j=          81 , f=point
   0.0000000000000000        0.0000000000000000        0.0000000000000000     
  1.23762376237623768E-002   0.0000000000000000        0.0000000000000000     
  2.47524752475247536E-002   0.0000000000000000        0.0000000000000000     
  3.71287128712871339E-002   0.0000000000000000        0.0000000000000000     
  4.95049504950495073E-002   0.0000000000000000        0.0000000000000000     
  6.18811881188118806E-002   0.0000000000000000        0.0000000000000000     
  7.42574257425742540E-002   0.0000000000000000        0.0000000000000000     
  8.66336633663366273E-002   0.0000000000000000        0.0000000000000000     
  9.90099009900990007E-002   0.0000000000000000        0.0000000000000000     
  0.11138613861386137        0.0000000000000000        0.0000000000000000     
  0.12376237623762375        0.0000000000000000        0.0000000000000000     
  0.13613861386138612        0.0000000000000000        0.0000000000000000     
  0.14851485148514851        0.0000000000000000        0.0000000000000000     
  0.16089108910891090        0.0000000000000000        0.0000000000000000     
  0.17326732673267328        0.0000000000000000        0.0000000000000000     
  0.18564356435643567        0.0000000000000000        0.0000000000000000     
  0.19801980198019806        0.0000000000000000        0.0000000000000000     
  0.21039603960396044        0.0000000000000000        0.0000000000000000     
  0.22277227722772283        0.0000000000000000        0.0000000000000000     
  0.23514851485148522        0.0000000000000000        0.0000000000000000     
  0.24752475247524761        0.0000000000000000        0.0000000000000000     
  0.25990099009900997        0.0000000000000000        0.0000000000000000     
  0.27227722772277235        0.0000000000000000        0.0000000000000000     
  0.28465346534653474        0.0000000000000000        0.0000000000000000     
  0.29702970297029713        0.0000000000000000        0.0000000000000000     
  0.30940594059405951        0.0000000000000000        0.0000000000000000     
  0.32178217821782190        0.0000000000000000        0.0000000000000000     
  0.33415841584158429        0.0000000000000000        0.0000000000000000     
  0.34653465346534668        0.0000000000000000        0.0000000000000000     
  0.35891089108910906        0.0000000000000000        0.0000000000000000     
  0.37128712871287145        0.0000000000000000        0.0000000000000000     
  0.38366336633663384        0.0000000000000000        0.0000000000000000     
  0.39603960396039622        0.0000000000000000        0.0000000000000000     
  0.40841584158415861        0.0000000000000000        0.0000000000000000     
  0.42079207920792100        0.0000000000000000        0.0000000000000000     
  0.43316831683168339        0.0000000000000000        0.0000000000000000     
  0.44554455445544577        0.0000000000000000        0.0000000000000000     
  0.45792079207920816        0.0000000000000000        0.0000000000000000     
  0.47029702970297055        0.0000000000000000        0.0000000000000000     
  0.48267326732673294        0.0000000000000000        0.0000000000000000     
  0.49504950495049532        0.0000000000000000        0.0000000000000000     
  0.50742574257425765        0.0000000000000000        0.0000000000000000     
  0.51980198019802004        0.0000000000000000        0.0000000000000000     
  0.53217821782178243        0.0000000000000000        0.0000000000000000     
  0.54455445544554482        0.0000000000000000        0.0000000000000000     
  0.55693069306930720        0.0000000000000000        0.0000000000000000     
  0.56930693069306959        0.0000000000000000        0.0000000000000000     
  0.58168316831683198        0.0000000000000000        0.0000000000000000     
  0.59405940594059436        0.0000000000000000        0.0000000000000000     
  0.60643564356435675        0.0000000000000000        0.0000000000000000     
  0.61881188118811914        0.0000000000000000        0.0000000000000000     
  0.63118811881188153        0.0000000000000000        0.0000000000000000     
  0.64356435643564391        0.0000000000000000        0.0000000000000000     
  0.65594059405940630        0.0000000000000000        0.0000000000000000     
  0.66831683168316869        0.0000000000000000        0.0000000000000000     
  0.68069306930693108        0.0000000000000000        0.0000000000000000     
  0.69306930693069346        0.0000000000000000        0.0000000000000000     
  0.70544554455445585        0.0000000000000000        0.0000000000000000     
  0.71782178217821824        0.0000000000000000        0.0000000000000000     
  0.73019801980198062        0.0000000000000000        0.0000000000000000     
  0.74257425742574301        0.0000000000000000        0.0000000000000000     
  0.75495049504950540        0.0000000000000000        0.0000000000000000     
  0.76732673267326779        0.0000000000000000        0.0000000000000000     
  0.77970297029703017        0.0000000000000000        0.0000000000000000     
  0.79207920792079256        0.0000000000000000        0.0000000000000000     
  0.80445544554455495        0.0000000000000000        0.0000000000000000     
  0.81683168316831734        0.0000000000000000        0.0000000000000000     
  0.82920792079207972        0.0000000000000000        0.0000000000000000     
  0.84158415841584211        0.0000000000000000        0.0000000000000000     
  0.85396039603960450        0.0000000000000000        0.0000000000000000     
  0.86633663366336688        0.0000000000000000        0.0000000000000000     
  0.87871287128712927        0.0000000000000000        0.0000000000000000     
  0.89108910891089166        0.0000000000000000        0.0000000000000000     
  0.90346534653465405        0.0000000000000000        0.0000000000000000     
  0.91584158415841643        0.0000000000000000        0.0000000000000000     
  0.92821782178217882        0.0000000000000000        0.0000000000000000     
  0.94059405940594121        0.0000000000000000        0.0000000000000000     
  0.95297029702970359        0.0000000000000000        0.0000000000000000     
  0.96534653465346598        0.0000000000000000        0.0000000000000000     
  0.97772277227722837        0.0000000000000000        0.0000000000000000     
  0.99009900990099076        0.0000000000000000        0.0000000000000000     
   1.0024752475247531        0.0000000000000000        0.0000000000000000     
   1.0148514851485155        0.0000000000000000        0.0000000000000000     
   1.0272277227722779        0.0000000000000000        0.0000000000000000     
   1.0396039603960403        0.0000000000000000        0.0000000000000000     
   1.0519801980198027        0.0000000000000000        0.0000000000000000     
   1.0643564356435651        0.0000000000000000        0.0000000000000000     
   1.0767326732673275        0.0000000000000000        0.0000000000000000     
   1.0891089108910899        0.0000000000000000        0.0000000000000000     
   1.1014851485148522        0.0000000000000000        0.0000000000000000     
   1.1138613861386146        0.0000000000000000        0.0000000000000000     
   1.1262376237623770        0.0000000000000000        0.0000000000000000     
   1.1386138613861394        0.0000000000000000        0.0000000000000000     
   1.1509900990099018        0.0000000000000000        0.0000000000000000     
   1.1633663366336642        0.0000000000000000        0.0000000000000000     
   1.1757425742574266        0.0000000000000000        0.0000000000000000     
   1.1881188118811890        0.0000000000000000        0.0000000000000000     
   1.2004950495049513        0.0000000000000000        0.0000000000000000     
   1.2128712871287137        0.0000000000000000        0.0000000000000000     
   1.2252475247524761        0.0000000000000000        0.0000000000000000     
   1.2376237623762385        0.0000000000000000        0.0000000000000000     
   1.2500000000000009        0.0000000000000000        0.0000000000000000     
   1.2623762376237633        0.0000000000000000        0.0000000000000000     
   1.2747524752475257        0.0000000000000000        0.0000000000000000     
   1.2871287128712880        0.0000000000000000        0.0000000000000000     
   1.2995049504950504        0.0000000000000000        0.0000000000000000     
   1.3118811881188128        0.0000000000000000        0.0000000000000000     
   1.3242574257425752        0.0000000000000000        0.0000000000000000     
   1.3366336633663376        0.0000000000000000        0.0000000000000000     
   1.3490099009901000        0.0000000000000000        0.0000000000000000     
   1.3613861386138624        0.0000000000000000        0.0000000000000000     
   1.3737623762376248        0.0000000000000000        0.0000000000000000     
   1.3861386138613871        0.0000000000000000        0.0000000000000000     
   1.3985148514851495        0.0000000000000000        0.0000000000000000     
   1.4108910891089119        0.0000000000000000        0.0000000000000000     
   1.4232673267326743        0.0000000000000000        0.0000000000000000     
   1.4356435643564367        0.0000000000000000        0.0000000000000000     
   1.4480198019801991        0.0000000000000000        0.0000000000000000     
   1.4603960396039615        0.0000000000000000        0.0000000000000000     
   1.4727722772277239        0.0000000000000000        0.0000000000000000     
   1.4851485148514862        0.0000000000000000        0.0000000000000000     
   1.4975247524752486        0.0000000000000000        0.0000000000000000     
   1.5099009900990110        0.0000000000000000        0.0000000000000000     
   1.5222772277227734        0.0000000000000000        0.0000000000000000     
   1.5346534653465358        0.0000000000000000        0.0000000000000000     
   1.5470297029702982        0.0000000000000000        0.0000000000000000     
   1.5594059405940606        0.0000000000000000        0.0000000000000000     
   1.5717821782178230        0.0000000000000000        0.0000000000000000     
   1.5841584158415853        0.0000000000000000        0.0000000000000000     
   1.5965346534653477        0.0000000000000000        0.0000000000000000     
   1.6089108910891101        0.0000000000000000        0.0000000000000000     
   1.6212871287128725        0.0000000000000000        0.0000000000000000     
   1.6336633663366349        0.0000000000000000        0.0000000000000000     
   1.6460396039603973        0.0000000000000000        0.0000000000000000     
   1.6584158415841597        0.0000000000000000        0.0000000000000000     
   1.6707920792079221        0.0000000000000000        0.0000000000000000     
   1.6831683168316844        0.0000000000000000        0.0000000000000000     
   1.6955445544554468        0.0000000000000000        0.0000000000000000     
   1.7079207920792092        0.0000000000000000        0.0000000000000000     
   1.7202970297029716        0.0000000000000000        0.0000000000000000     
   1.7326732673267340        0.0000000000000000        0.0000000000000000     
   1.7450495049504964        0.0000000000000000        0.0000000000000000     
   1.7574257425742588        0.0000000000000000        0.0000000000000000     
   1.7698019801980212        0.0000000000000000        0.0000000000000000     
   1.7821782178217835        0.0000000000000000        0.0000000000000000     
   1.7945544554455459        0.0000000000000000        0.0000000000000000     
   1.8069306930693083        0.0000000000000000        0.0000000000000000     
   1.8193069306930707        0.0000000000000000        0.0000000000000000     
   1.8316831683168331        0.0000000000000000        0.0000000000000000     
   1.8440594059405955        0.0000000000000000        0.0000000000000000     
   1.8564356435643579        0.0000000000000000        0.0000000000000000     
   1.8688118811881202        0.0000000000000000        0.0000000000000000     
   1.8811881188118826        0.0000000000000000        0.0000000000000000     
   1.8935643564356450        0.0000000000000000        0.0000000000000000     
   1.9059405940594074        0.0000000000000000        0.0000000000000000     
   1.9183168316831698        0.0000000000000000        0.0000000000000000     
   1.9306930693069322        0.0000000000000000        0.0000000000000000     
   1.9430693069306946        0.0000000000000000        0.0000000000000000     
   1.9554455445544570        0.0000000000000000        0.0000000000000000     
   1.9678217821782193        0.0000000000000000        0.0000000000000000     
   1.9801980198019817        0.0000000000000000        0.0000000000000000     
   1.9925742574257441        0.0000000000000000        0.0000000000000000     
   2.0049504950495063        0.0000000000000000        0.0000000000000000     
   2.0173267326732685        0.0000000000000000        0.0000000000000000     
   2.0297029702970306        0.0000000000000000        0.0000000000000000     
   2.0420792079207928        0.0000000000000000        0.0000000000000000     
   2.0544554455445549        0.0000000000000000        0.0000000000000000     
   2.0668316831683171        0.0000000000000000        0.0000000000000000     
   2.0792079207920793        0.0000000000000000        0.0000000000000000     
   2.0915841584158414        0.0000000000000000        0.0000000000000000     
   2.1039603960396036        0.0000000000000000        0.0000000000000000     
   2.1163366336633658        0.0000000000000000        0.0000000000000000     
   2.1287128712871279        0.0000000000000000        0.0000000000000000     
   2.1410891089108901        0.0000000000000000        0.0000000000000000     
   2.1534653465346523        0.0000000000000000        0.0000000000000000     
   2.1658415841584144        0.0000000000000000        0.0000000000000000     
   2.1782178217821766        0.0000000000000000        0.0000000000000000     
   2.1905940594059388        0.0000000000000000        0.0000000000000000     
   2.2029702970297009        0.0000000000000000        0.0000000000000000     
   2.2153465346534631        0.0000000000000000        0.0000000000000000     
   2.2277227722772253        0.0000000000000000        0.0000000000000000     
   2.2400990099009874        0.0000000000000000        0.0000000000000000     
   2.2524752475247496        0.0000000000000000        0.0000000000000000     
   2.2648514851485118        0.0000000000000000        0.0000000000000000     
   2.2772277227722739        0.0000000000000000        0.0000000000000000     
   2.2896039603960361        0.0000000000000000        0.0000000000000000     
   2.3019801980197983        0.0000000000000000        0.0000000000000000     
   2.3143564356435604        0.0000000000000000        0.0000000000000000     
   2.3267326732673226        0.0000000000000000        0.0000000000000000     
   2.3391089108910847        0.0000000000000000        0.0000000000000000     
   2.3514851485148469        0.0000000000000000        0.0000000000000000     
   2.3638613861386091        0.0000000000000000        0.0000000000000000     
   2.3762376237623712        0.0000000000000000        0.0000000000000000     
   2.3886138613861334        0.0000000000000000        0.0000000000000000     
   2.4009900990098956        0.0000000000000000        0.0000000000000000     
   2.4133663366336577        0.0000000000000000        0.0000000000000000     
   2.4257425742574199        0.0000000000000000        0.0000000000000000     
   2.4381188118811821        0.0000000000000000        0.0000000000000000     
   2.4504950495049442        0.0000000000000000        0.0000000000000000     
   2.4628712871287064        0.0000000000000000        0.0000000000000000     
   2.4752475247524686        0.0000000000000000        0.0000000000000000     
   2.4876237623762307        0.0000000000000000        0.0000000000000000     
   2.4999999999999929        0.0000000000000000        0.0000000000000000     

   0.0000000000000000       1.25000000000000007E-002   0.0000000000000000     
  1.23762376237623768E-002  1.25000000000000007E-002  4.23128443010254123E-004
  2.47524752475247536E-002  1.25000000000000007E-002  2.85451873958322421E-004
  3.71287128712871339E-002  1.25000000000000007E-002  1.59989056266532180E-004
  4.95049504950495073E-002  1.25000000000000007E-002  9.00504123825089935E-005
  6.18811881188118806E-002  1.25000000000000007E-002  5.40740603285263721E-005
  7.42574257425742540E-002  1.25000000000000007E-002  3.51522749413578258E-005
  8.66336633663366273E-002  1.25000000000000007E-002  2.45541802151143759E-005
  9.90099009900990007E-002  1.25000000000000007E-002  1.81591405226954494E-005
  0.11138613861386137       1.25000000000000007E-002  1.40222680960354490E-005
  0.12376237623762375       1.25000000000000007E-002  1.11869988459140042E-005
  0.13613861386138612       1.25000000000000007E-002  9.15339670132096460E-006
  0.14851485148514851       1.25000000000000007E-002  7.64229420723291916E-006
  0.16089108910891090       1.25000000000000007E-002  6.48774656195125312E-006
  0.17326732673267328       1.25000000000000007E-002  5.58559759299064494E-006
  0.18564356435643567       1.25000000000000007E-002  4.86743839204220311E-006
  0.19801980198019806       1.25000000000000007E-002  4.28663119652958686E-006
  0.21039603960396044       1.25000000000000007E-002  3.81038954167352549E-006
  0.22277227722772283       1.25000000000000007E-002  3.41506953002154760E-006
  0.23514851485148522       1.25000000000000007E-002  3.08325216987563281E-006
  0.24752475247524761       1.25000000000000007E-002  2.80187052589978948E-006
  0.25990099009900997       1.25000000000000007E-002  2.56097048570824120E-006
  0.27227722772277235       1.25000000000000007E-002  2.35286885906214190E-006
  0.28465346534653474       1.25000000000000007E-002  2.17156798562019869E-006
  0.29702970297029713       1.25000000000000007E-002  2.01234021935248607E-006
  0.30940594059405951       1.25000000000000007E-002  1.87142750197375766E-006
  0.32178217821782190       1.25000000000000007E-002  1.74582052145138860E-006
  0.33415841584158429       1.25000000000000007E-002  1.63309394110109976E-006
  0.34653465346534668       1.25000000000000007E-002  1.53128181490017680E-006
  0.35891089108910906       1.25000000000000007E-002  1.43878226268284230E-006
  0.37128712871287145       1.25000000000000007E-002  1.35428376189096173E-006
  0.38366336633663384       1.25000000000000007E-002  1.27670762428186579E-006
  0.39603960396039622       1.25000000000000007E-002  1.20516274007919807E-006
  0.40841584158415861       1.25000000000000007E-002  1.13890972426571924E-006
  0.42079207920792100       1.25000000000000007E-002  1.07733234148100200E-006
  0.43316831683168339       1.25000000000000007E-002  1.01991461610317268E-006
  0.44554455445544577       1.25000000000000007E-002  9.66222417980188074E-007
  0.45792079207920816       1.25000000000000007E-002  9.15888595824203308E-007
  0.47029702970297055       1.25000000000000007E-002  8.68600939317682937E-007
  0.48267326732673294       1.25000000000000007E-002  8.24092408005363693E-007
  0.49504950495049532       1.25000000000000007E-002  7.82133184320320953E-007
  0.50742574257425765       1.25000000000000007E-002  7.42524199641607863E-007
  0.51980198019802004       1.25000000000000007E-002  7.05091853230828040E-007
  0.53217821782178243       1.25000000000000007E-002  6.69683699368100795E-007
  0.54455445544554482       1.25000000000000007E-002  6.36164921725259001E-007
  0.55693069306930720       1.25000000000000007E-002  6.04415448709651946E-007
  0.56930693069306959       1.25000000000000007E-002  5.74327591216300218E-007
  0.58168316831683198       1.25000000000000007E-002  5.45804106465234430E-007
  0.59405940594059436       1.25000000000000007E-002  5.18756609529523655E-007
  0.60643564356435675       1.25000000000000007E-002  4.93104268669339847E-007
  0.61881188118811914       1.25000000000000007E-002  4.68772732362083337E-007
  0.63118811881188153       1.25000000000000007E-002  4.45693245498174998E-007
  0.64356435643564391       1.25000000000000007E-002  4.23801920019162638E-007
  0.65594059405940630       1.25000000000000007E-002  4.03039131645366114E-007
  0.66831683168316869       1.25000000000000007E-002  3.83349019544495215E-007
  0.68069306930693108       1.25000000000000007E-002  3.64679070045222317E-007
  0.69306930693069346       1.25000000000000007E-002  3.46979768976995071E-007
  0.70544554455445585       1.25000000000000007E-002  3.30204310059553295E-007
  0.71782178217821824       1.25000000000000007E-002  3.14308349089097761E-007
  0.73019801980198062       1.25000000000000007E-002  2.99249795566924161E-007
  0.74257425742574301       1.25000000000000007E-002  2.84988634966476379E-007
  0.75495049504950540       1.25000000000000007E-002  2.71486776101078621E-007
  0.76732673267326779       1.25000000000000007E-002  2.58707919086603335E-007
  0.77970297029703017       1.25000000000000007E-002  2.46617440235058206E-007
  0.79207920792079256       1.25000000000000007E-002  2.35182290900654435E-007
  0.80445544554455495       1.25000000000000007E-002  2.24370907857409443E-007
  0.81683168316831734       1.25000000000000007E-002  2.14153133241124053E-007
  0.82920792079207972       1.25000000000000007E-002  2.04500142456803939E-007
  0.84158415841584211       1.25000000000000007E-002  1.95384378751719419E-007
  0.85396039603960450       1.25000000000000007E-002  1.86779493397065351E-007
  0.86633663366336688       1.25000000000000007E-002  1.78660290617440782E-007
  0.87871287128712927       1.25000000000000007E-002  1.71002676566756126E-007
  0.89108910891089166       1.25000000000000007E-002  1.63783611778016092E-007
  0.90346534653465405       1.25000000000000007E-002  1.56981066618674184E-007
  0.91584158415841643       1.25000000000000007E-002  1.50573979367423793E-007
  0.92821782178217882       1.25000000000000007E-002  1.44542216596608094E-007
  0.94059405940594121       1.25000000000000007E-002  1.38866535599330394E-007
  0.95297029702970359       1.25000000000000007E-002  1.33528548645019512E-007
  0.96534653465346598       1.25000000000000007E-002  1.28510688883157432E-007
  0.97772277227722837       1.25000000000000007E-002  1.23796177743960405E-007
  0.99009900990099076       1.25000000000000007E-002  1.19368993708549059E-007
   1.0024752475247531       1.25000000000000007E-002  1.15213842340212422E-007
   1.0148514851485155       1.25000000000000007E-002  1.11316127483918075E-007
   1.0272277227722779       1.25000000000000007E-002  1.07661923553931079E-007
   1.0396039603960403       1.25000000000000007E-002  1.04237948839602503E-007
   1.0519801980198027       1.25000000000000007E-002  1.01031539768125022E-007
   1.0643564356435651       1.25000000000000007E-002  9.80306260695528856E-008
   1.0767326732673275       1.25000000000000007E-002  9.52237067954669828E-008
   1.0891089108910899       1.25000000000000007E-002  9.25998271471544547E-008
   1.1014851485148522       1.25000000000000007E-002  9.01485560729947975E-008
   1.1138613861386146       1.25000000000000007E-002  8.78599645981943831E-008
   1.1262376237623770       1.25000000000000007E-002  8.57246048524611988E-008
   1.1386138613861394       1.25000000000000007E-002  8.37334897634544327E-008
   1.1509900990099018       1.25000000000000007E-002  8.18780733857476456E-008
   1.1633663366336642       1.25000000000000007E-002  8.01502318366000860E-008
   1.1757425742574266       1.25000000000000007E-002  7.85422448108162548E-008
   1.1881188118811890       1.25000000000000007E-002  7.70467776482932628E-008
   1.2004950495049513       1.25000000000000007E-002  7.56568639284880623E-008
   1.2128712871287137       1.25000000000000007E-002  7.43658885667037899E-008
   1.2252475247524761       1.25000000000000007E-002  7.31675713875335770E-008
   1.2376237623762385       1.25000000000000007E-002  7.20559511512292767E-008
   1.2500000000000009       1.25000000000000007E-002  7.10253700088966331E-008
   1.2623762376237633       1.25000000000000007E-002  7.00704583625241046E-008
   1.2747524752475257       1.25000000000000007E-002  6.91861201058074715E-008
   1.2871287128712880       1.25000000000000007E-002  6.83675182217539195E-008
   1.2995049504950504       1.25000000000000007E-002  6.76100607127456546E-008
   1.3118811881188128       1.25000000000000007E-002  6.69093868384702956E-008
   1.3242574257425752       1.25000000000000007E-002  6.62613536368554958E-008
   1.3366336633663376       1.25000000000000007E-002  6.56620227027585893E-008
   1.3490099009901000       1.25000000000000007E-002  6.51076471984913911E-008
   1.3613861386138624       1.25000000000000007E-002  6.45946590701693848E-008
   1.3737623762376248       1.25000000000000007E-002  6.41196564428395622E-008
   1.3861386138613871       1.25000000000000007E-002  6.36793911671797791E-008
   1.3985148514851495       1.25000000000000007E-002  6.32707564897697624E-008
   1.4108910891089119       1.25000000000000007E-002  6.28907748183688539E-008
   1.4232673267326743       1.25000000000000007E-002  6.25365855531196774E-008
   1.4356435643564367       1.25000000000000007E-002  6.22054329541102059E-008
   1.4480198019801991       1.25000000000000007E-002  6.18946540150275572E-008
   1.4603960396039615       1.25000000000000007E-002  6.16016663124684069E-008
   1.4727722772277239       1.25000000000000007E-002  6.13239558001212014E-008
   1.4851485148514862       1.25000000000000007E-002  6.10590645167196893E-008
   1.4975247524752486       1.25000000000000007E-002  6.08045781768959343E-008
   1.5099009900990110       1.25000000000000007E-002  6.05581136140440596E-008
   1.5222772277227734       1.25000000000000007E-002  6.03173060451071200E-008
   1.5346534653465358       1.25000000000000007E-002  6.00797961276630791E-008
   1.5470297029702982       1.25000000000000007E-002  5.98432167811506895E-008
   1.5594059405940606       1.25000000000000007E-002  5.96051797456242413E-008
   1.5717821782178230       1.25000000000000007E-002  5.93632618536089677E-008
   1.5841584158415853       1.25000000000000007E-002  5.91149909935033804E-008
   1.5965346534653477       1.25000000000000007E-002  5.88578317465424994E-008
   1.6089108910891101       1.25000000000000007E-002  5.85891706838261731E-008
   1.6212871287128725       1.25000000000000007E-002  5.83063013153801905E-008
   1.6336633663366349       1.25000000000000007E-002  5.80064086897582265E-008
   1.6460396039603973       1.25000000000000007E-002  5.76865536509605418E-008
   1.6584158415841597       1.25000000000000007E-002  5.73436567685887397E-008
   1.6707920792079221       1.25000000000000007E-002  5.69744819689723089E-008
   1.6831683168316844       1.25000000000000007E-002  5.65756199078986479E-008
   1.6955445544554468       1.25000000000000007E-002  5.61434711416014126E-008
   1.7079207920792092       1.25000000000000007E-002  5.56742291707921001E-008
   1.7202970297029716       1.25000000000000007E-002  5.51638634538042372E-008
   1.7326732673267340       1.25000000000000007E-002  5.46081025096368159E-008
   1.7450495049504964       1.25000000000000007E-002  5.40024172598392746E-008
   1.7574257425742588       1.25000000000000007E-002  5.33420047910179075E-008
   1.7698019801980212       1.25000000000000007E-002  5.26217727567076365E-008
   1.7821782178217835       1.25000000000000007E-002  5.18363246798949825E-008
   1.7945544554455459       1.25000000000000007E-002  5.09799464655163574E-008
   1.8069306930693083       1.25000000000000007E-002  5.00465944866041569E-008
   1.8193069306930707       1.25000000000000007E-002  4.90298856686595374E-008
   1.8316831683168331       1.25000000000000007E-002  4.79230900652504823E-008
   1.8440594059405955       1.25000000000000007E-002  4.67191264938130516E-008
   1.8564356435643579       1.25000000000000007E-002  4.54105618845626059E-008
   1.8688118811881202       1.25000000000000007E-002  4.39896150880041873E-008
   1.8811881188118826       1.25000000000000007E-002  4.24481659871261950E-008
   1.8935643564356450       1.25000000000000007E-002  4.07777708694252384E-008
   1.9059405940594074       1.25000000000000007E-002  3.89696851302609417E-008
   1.9183168316831698       1.25000000000000007E-002  3.70148945024736724E-008
   1.9306930693069322       1.25000000000000007E-002  3.49041561350093453E-008
   1.9430693069306946       1.25000000000000007E-002  3.26280509742291077E-008
   1.9554455445544570       1.25000000000000007E-002  3.01770490315083537E-008
   1.9678217821782193       1.25000000000000007E-002  2.75415892454522652E-008
   1.9801980198019817       1.25000000000000007E-002  2.47121757605567061E-008
   1.9925742574257441       1.25000000000000007E-002  2.16794925389245967E-008
   2.0049504950495063       1.25000000000000007E-002  1.84345382876998634E-008
   2.0173267326732685       1.25000000000000007E-002  1.49687837105329825E-008
   2.0297029702970306       1.25000000000000007E-002  1.12743530619279111E-008
   2.0420792079207928       1.25000000000000007E-002  7.34423188115205257E-009
   2.0544554455445549       1.25000000000000007E-002  3.17250258713673469E-009
   2.0668316831683171       1.25000000000000007E-002 -1.24539069634913538E-009
   2.0792079207920793       1.25000000000000007E-002 -5.91234717146675229E-009
   2.0915841584158414       1.25000000000000007E-002 -1.08292839675040162E-008
   2.1039603960396036       1.25000000000000007E-002 -1.59947808584520313E-008
   2.1163366336633658       1.25000000000000007E-002 -2.14046967092071254E-008
   2.1287128712871279       1.25000000000000007E-002 -2.70517605931871811E-008
   2.1410891089108901       1.25000000000000007E-002 -3.29251421439911319E-008
   2.1534653465346523       1.25000000000000007E-002 -3.90100076305056855E-008