 variables = "x", "y", "z"
 zone i=         101 , j=         101 , f=point
   0.0000000000000000        0.0000000000000000        2.8285275726752879     
   0.0000000000000000       1.00000000000000002E-002   1.1714724273247119     
   0.0000000000000000       2.00000000000000004E-002  0.97115495018316444     
   0.0000000000000000       2.99999999999999989E-002  0.95931503055229439     
   0.0000000000000000       4.00000000000000008E-002  0.97028745120857707     
   0.0000000000000000       5.00000000000000028E-002  0.98012352697934668     
   0.0000000000000000       6.00000000000000047E-002  0.98672621989849629     
   0.0000000000000000       7.00000000000000067E-002  0.99095370982673248     
   0.0000000000000000       8.00000000000000017E-002  0.99367188319334976     
   0.0000000000000000       8.99999999999999967E-002  0.99545222841664915     
   0.0000000000000000       9.99999999999999917E-002  0.99664491012116807     
   0.0000000000000000       0.10999999999999999       0.99746287226392383     
   0.0000000000000000       0.11999999999999998       0.99803703452750292     
   0.0000000000000000       0.12999999999999998       0.99844922995964436     
   0.0000000000000000       0.13999999999999999       0.99875155441883656     
   0.0000000000000000       0.14999999999999999       0.99897780270187031     
   0.0000000000000000       0.16000000000000000       0.99915031485107497     
   0.0000000000000000       0.17000000000000001       0.99928413682789241     
   0.0000000000000000       0.18000000000000002       0.99938958920504173     
   0.0000000000000000       0.19000000000000003       0.99947387847599001     
   0.0000000000000000       0.20000000000000004       0.99954212400875075     
   0.0000000000000000       0.21000000000000005       0.99959802297446498     
   0.0000000000000000       0.22000000000000006       0.99964428764351321     
   0.0000000000000000       0.23000000000000007       0.99968293743551895     
   0.0000000000000000       0.24000000000000007       0.99971549693607709     
   0.0000000000000000       0.25000000000000006       0.99974313215595001     
   0.0000000000000000       0.26000000000000006       0.99976674565218882     
   0.0000000000000000       0.27000000000000007       0.99978704386215167     
   0.0000000000000000       0.28000000000000008       0.99980458541060679     
   0.0000000000000000       0.29000000000000009       0.99981981621361915     
   0.0000000000000000       0.30000000000000010       0.99983309530102749     
   0.0000000000000000       0.31000000000000011       0.99984471403214936     
   0.0000000000000000       0.32000000000000012       0.99985491055149445     
   0.0000000000000000       0.33000000000000013       0.99986388077509170     
   0.0000000000000000       0.34000000000000014       0.99987178681994560     
   0.0000000000000000       0.35000000000000014       0.99987876352908511     
   0.0000000000000000       0.36000000000000015       0.99988492356379699     
   0.0000000000000000       0.37000000000000016       0.99989036140741905     
   0.0000000000000000       0.38000000000000017       0.99989515653463323     
   0.0000000000000000       0.39000000000000018       0.99989937593522327     
   0.0000000000000000       0.40000000000000019       0.99990307613413143     
   0.0000000000000000       0.41000000000000020       0.99990630481509757     
   0.0000000000000000       0.42000000000000021       0.99990910212958917     
   0.0000000000000000       0.43000000000000022       0.99991150175365240     
   0.0000000000000000       0.44000000000000022       0.99991353174088893     
   0.0000000000000000       0.45000000000000023       0.99991521520879378     
   0.0000000000000000       0.46000000000000024       0.99991657088721175     
   0.0000000000000000       0.47000000000000025       0.99991761355109099     
   0.0000000000000000       0.48000000000000026       0.99991835435444898     
   0.0000000000000000       0.49000000000000027       0.99991880107827291     
   0.0000000000000000       0.50000000000000022       0.99991895830155664     
   0.0000000000000000       0.51000000000000023       0.99991882750173167     
   0.0000000000000000       0.52000000000000024       0.99991840708809310     
   0.0000000000000000       0.53000000000000025       0.99991769236940331     
   0.0000000000000000       0.54000000000000026       0.99991667545447616     
   0.0000000000000000       0.55000000000000027       0.99991534508211366     
   0.0000000000000000       0.56000000000000028       0.99991368637413025     
   0.0000000000000000       0.57000000000000028       0.99991168050223811     
   0.0000000000000000       0.58000000000000029       0.99990930425606139     
   0.0000000000000000       0.59000000000000030       0.99990652949533931     
   0.0000000000000000       0.60000000000000031       0.99990332246413094     
   0.0000000000000000       0.61000000000000032       0.99989964293825051     
   0.0000000000000000       0.62000000000000033       0.99989544316867796     
   0.0000000000000000       0.63000000000000034       0.99989066657272163     
   0.0000000000000000       0.64000000000000035       0.99988524611030538     
   0.0000000000000000       0.65000000000000036       0.99987910226363508     
   0.0000000000000000       0.66000000000000036       0.99987214051295159     
   0.0000000000000000       0.67000000000000037       0.99986424816651653     
   0.0000000000000000       0.68000000000000038       0.99985529035583220     
   0.0000000000000000       0.69000000000000039       0.99984510494212286     
   0.0000000000000000       0.70000000000000040       0.99983349598965376     
   0.0000000000000000       0.71000000000000041       0.99982022533423631     
   0.0000000000000000       0.72000000000000042       0.99980500159435515     
   0.0000000000000000       0.73000000000000043       0.99978746571229760     
   0.0000000000000000       0.74000000000000044       0.99976717173448959     
   0.0000000000000000       0.75000000000000044       0.99974356098404193     
   0.0000000000000000       0.76000000000000045       0.99971592695051537     
   0.0000000000000000       0.77000000000000046       0.99968336697464921     
   0.0000000000000000       0.78000000000000047       0.99964471490368179     
   0.0000000000000000       0.79000000000000048       0.99959844595616576     
   0.0000000000000000       0.80000000000000049       0.99954254044400881     
   0.0000000000000000       0.81000000000000050       0.99947428573049035     
   0.0000000000000000       0.82000000000000051       0.99938998414602720     
   0.0000000000000000       0.83000000000000052       0.99928451564553233     
   0.0000000000000000       0.84000000000000052       0.99915067281664816     
   0.0000000000000000       0.85000000000000053       0.99897813384082679     
   0.0000000000000000       0.86000000000000054       0.99875185107129760     
   0.0000000000000000       0.87000000000000055       0.99844948219759511     
   0.0000000000000000       0.88000000000000056       0.99803722940348494     
   0.0000000000000000       0.89000000000000057       0.99746299289751672     
   0.0000000000000000       0.90000000000000058       0.99664493472968951     
   0.0000000000000000       0.91000000000000059       0.99545212966893004     
   0.0000000000000000       0.92000000000000060       0.99367162895970829     
   0.0000000000000000       0.93000000000000060       0.99095326825370855     
   0.0000000000000000       0.94000000000000061       0.98672557795473925     
   0.0000000000000000       0.95000000000000062       0.98012275524192538     
   0.0000000000000000       0.96000000000000063       0.97028691439717574     
   0.0000000000000000       0.97000000000000064       0.95931588846277815     
   0.0000000000000000       0.98000000000000065       0.97115956375341117     
   0.0000000000000000       0.99000000000000066        1.1714815937941616     
   0.0000000000000000        1.0000000000000007        2.8285184062058386     
  
  1.00000000000000002E-002   0.0000000000000000      -0.82852757267528809     
  1.00000000000000002E-002  1.00000000000000002E-002  0.82852771102217138     
  1.00000000000000002E-002  2.00000000000000004E-002   1.0288452299296982     
  1.00000000000000002E-002  2.99999999999999989E-002   1.0406851566844644     
  1.00000000000000002E-002  4.00000000000000008E-002   1.0297127355712494     
  1.00000000000000002E-002  5.00000000000000028E-002   1.0198766581283290     
  1.00000000000000002E-002  6.00000000000000047E-002   1.0132739636461916     
  1.00000000000000002E-002  7.00000000000000067E-002   1.0090464723573604     
  1.00000000000000002E-002  8.00000000000000017E-002   1.0063282977045267     
  1.00000000000000002E-002  8.99999999999999967E-002   1.0045479511563542     
  1.00000000000000002E-002  9.99999999999999917E-002   1.0033552680245037     
  1.00000000000000002E-002  0.10999999999999999        1.0025373043266246     
  1.00000000000000002E-002  0.11999999999999998        1.0019631403779647     
  1.00000000000000002E-002  0.12999999999999998        1.0015509431405303     
  1.00000000000000002E-002  0.13999999999999999        1.0012486167706451     
  1.00000000000000002E-002  0.14999999999999999        1.0010223664876985     
  1.00000000000000002E-002  0.16000000000000000        1.0008498522651277     
  1.00000000000000002E-002  0.17000000000000001        1.0007160281561358     
  1.00000000000000002E-002  0.18000000000000002        1.0006105736013706     
  1.00000000000000002E-002  0.19000000000000003        1.0005262821195440     
  1.00000000000000002E-002  0.20000000000000004        1.0004580343538159     
  1.00000000000000002E-002  0.21000000000000005        1.0004021331434061     
  1.00000000000000002E-002  0.22000000000000006        1.0003558662276519     
  1.00000000000000002E-002  0.23000000000000007        1.0003172141961425     
  1.00000000000000002E-002  0.24000000000000007        1.0002846524720872     
  1.00000000000000002E-002  0.25000000000000006        1.0002570150531915     
  1.00000000000000002E-002  0.26000000000000006        1.0002333993905799     
  1.00000000000000002E-002  0.27000000000000007        1.0002130990547997     
  1.00000000000000002E-002  0.28000000000000008        1.0001955554287292     
  1.00000000000000002E-002  0.29000000000000009        1.0001803226036921     
  1.00000000000000002E-002  0.30000000000000010        1.0001670415569699     
  1.00000000000000002E-002  0.31000000000000011        1.0001554209360854     
  1.00000000000000002E-002  0.32000000000000012        1.0001452226030738     
  1.00000000000000002E-002  0.33000000000000013        1.0001362506481362     
  1.00000000000000002E-002  0.34000000000000014        1.0001283429601682     
  1.00000000000000002E-002  0.35000000000000014        1.0001213647016922     
  1.00000000000000002E-002  0.36000000000000015        1.0001152032166085     
  1.00000000000000002E-002  0.37000000000000016        1.0001097640263863     
  1.00000000000000002E-002  0.38000000000000017        1.0001049676607585     
  1.00000000000000002E-002  0.39000000000000018        1.0001007471339531     
  1.00000000000000002E-002  0.40000000000000019        1.0000970459246248     
  1.00000000000000002E-002  0.41000000000000020        1.0000938163522137     
  1.00000000000000002E-002  0.42000000000000021        1.0000910182680038     
  1.00000000000000002E-002  0.43000000000000022        1.0000886179982758     
  1.00000000000000002E-002  0.44000000000000022        1.0000865874913223     
  1.00000000000000002E-002  0.45000000000000023        1.0000849036311177     
  1.00000000000000002E-002  0.46000000000000024        1.0000835476888572     
  1.00000000000000002E-002  0.47000000000000025        1.0000825048902127     
  1.00000000000000002E-002  0.48000000000000026        1.0000817640813686     
  1.00000000000000002E-002  0.49000000000000027        1.0000813174811314     
  1.00000000000000002E-002  0.50000000000000022        1.0000811605098967     
  1.00000000000000002E-002  0.51000000000000023        1.0000812916892301     
  1.00000000000000002E-002  0.52000000000000024        1.0000817126084494     
  1.00000000000000002E-002  0.53000000000000025        1.0000824279570324     
  1.00000000000000002E-002  0.54000000000000026        1.0000834456240426     
  1.00000000000000002E-002  0.55000000000000027        1.0000847768682055     
  1.00000000000000002E-002  0.56000000000000028        1.0000864365648960     
  1.00000000000000002E-002  0.57000000000000028        1.0000884435392661     
  1.00000000000000002E-002  0.58000000000000029        1.0000908209982426     
  1.00000000000000002E-002  0.59000000000000030        1.0000935970783413     
  1.00000000000000002E-002  0.60000000000000031        1.0000968055314703     
  1.00000000000000002E-002  0.61000000000000032        1.0001004865775132     
  1.00000000000000002E-002  0.62000000000000033        1.0001046879609321     
  1.00000000000000002E-002  0.63000000000000034        1.0001094662596186     
  1.00000000000000002E-002  0.64000000000000035        1.0001148885086226     
  1.00000000000000002E-002  0.65000000000000036        1.0001210342205016     
  1.00000000000000002E-002  0.66000000000000036        1.0001279979095801     
  1.00000000000000002E-002  0.67000000000000037        1.0001358922619812     
  1.00000000000000002E-002  0.68000000000000038        1.0001448521404226     
  1.00000000000000002E-002  0.69000000000000039        1.0001550396777452     
  1.00000000000000002E-002  0.70000000000000040        1.0001666508036107     
  1.00000000000000002E-002  0.71000000000000041        1.0001799236760087     
  1.00000000000000002E-002  0.72000000000000042        1.0001951496701336     
  1.00000000000000002E-002  0.73000000000000043        1.0002126878372681     
  1.00000000000000002E-002  0.74000000000000044        1.0002329841244413     
  1.00000000000000002E-002  0.75000000000000044        1.0002565972018806     
  1.00000000000000002E-002  0.76000000000000045        1.0002842335732303     
  1.00000000000000002E-002  0.77000000000000046        1.0003167958907946     
  1.00000000000000002E-002  0.78000000000000047        1.0003554503001724     
  1.00000000000000002E-002  0.79000000000000048        1.0004017215753771     
  1.00000000000000002E-002  0.80000000000000049        1.0004576293966985     
  1.00000000000000002E-002  0.81000000000000050        1.0005258863925639     
  1.00000000000000002E-002  0.82000000000000051        1.0006101902236015     
  1.00000000000000002E-002  0.83000000000000052        1.0007156609250834     
  1.00000000000000002E-002  0.84000000000000052        1.0008495058984630     
  1.00000000000000002E-002  0.85000000000000053        1.0010220469500841     
  1.00000000000000002E-002  0.86000000000000054        1.0012483317130940     
  1.00000000000000002E-002  0.87000000000000055        1.0015507024830705     
  1.00000000000000002E-002  0.88000000000000056        1.0019629570608350     
  1.00000000000000002E-002  0.89000000000000057        1.0025371952237829     
  1.00000000000000002E-002  0.90000000000000058        1.0033552549131486     
  1.00000000000000002E-002  0.91000000000000059        1.0045480613637967     
  1.00000000000000002E-002  0.92000000000000060        1.0063285633595436     
  1.00000000000000002E-002  0.93000000000000060        1.0090469253176608     
  1.00000000000000002E-002  0.94000000000000061        1.0132746169551765     
  1.00000000000000002E-002  0.95000000000000062        1.0198774412288698     
  1.00000000000000002E-002  0.96000000000000063        1.0297132837566447     
  1.00000000000000002E-002  0.97000000000000064        1.0406843100900298     
  1.00000000000000002E-002  0.98000000000000065        1.0288406271731145     
  1.00000000000000002E-002  0.99000000000000066       0.82851855285365461     
  1.00000000000000002E-002   1.0000000000000007      -0.82851840620583839     
  
  2.00000000000000004E-002   0.0000000000000000      -0.56224989078972420     
  2.00000000000000004E-002  1.00000000000000002E-002  0.56225024211724517     
  2.00000000000000004E-002  2.00000000000000004E-002  0.96495946145747513     
  2.00000000000000004E-002  2.99999999999999989E-002   1.0736120111574814     
  2.00000000000000004E-002  4.00000000000000008E-002   1.0856184422370236     
  2.00000000000000004E-002  5.00000000000000028E-002   1.0716814791126295     
  2.00000000000000004E-002  6.00000000000000047E-002   1.0545293820321622     
  2.00000000000000004E-002  7.00000000000000067E-002   1.0402275236408587     
  2.00000000000000004E-002  8.00000000000000017E-002   1.0295552100089393     
  2.00000000000000004E-002  8.99999999999999967E-002   1.0218968126673924     
  2.00000000000000004E-002  9.99999999999999917E-002   1.0164585070155516     
  2.00000000000000004E-002  0.10999999999999999        1.0125847828278081     
  2.00000000000000004E-002  0.11999999999999998        1.0097976222007130     
  2.00000000000000004E-002  0.12999999999999998        1.0077645784959939     
  2.00000000000000004E-002  0.13999999999999999        1.0062584783667667     
  2.00000000000000004E-002  0.14999999999999999        1.0051246185511895     
  2.00000000000000004E-002  0.16000000000000000        1.0042572126054614     
  2.00000000000000004E-002  0.17000000000000001        1.0035833094645048     
  2.00000000000000004E-002  0.18000000000000002        1.0030520435243733     
  2.00000000000000004E-002  0.19000000000000003        1.0026275003278682     
  2.00000000000000004E-002  0.20000000000000004        1.0022839801656518     
  2.00000000000000004E-002  0.21000000000000005        1.0020028385126922     
  2.00000000000000004E-002  0.22000000000000006        1.0017703623062115     
  2.00000000000000004E-002  0.23000000000000007        1.0015763290123116     
  2.00000000000000004E-002  0.24000000000000007        1.0014130185754737     
  2.00000000000000004E-002  0.25000000000000006        1.0012745281978395     
  2.00000000000000004E-002  0.26000000000000006        1.0011562915138379     
  2.00000000000000004E-002  0.27000000000000007        1.0010547371364207     
  2.00000000000000004E-002  0.28000000000000008        1.0009670432653708     
  2.00000000000000004E-002  0.29000000000000009        1.0008909592454260     
  2.00000000000000004E-002  0.30000000000000010        1.0008246743125186     
  2.00000000000000004E-002  0.31000000000000011        1.0007667199758810     
  2.00000000000000004E-002  0.32000000000000012        1.0007158966443526     
  2.00000000000000004E-002  0.33000000000000013        1.0006712179193165     
  2.00000000000000004E-002  0.34000000000000014        1.0006318678987423     
  2.00000000000000004E-002  0.35000000000000014        1.0005971681627384     
  2.00000000000000004E-002  0.36000000000000015        1.0005665520349416     
  2.00000000000000004E-002  0.37000000000000016        1.0005395443643690     
  2.00000000000000004E-002  0.38000000000000017        1.0005157455346907     
  2.00000000000000004E-002  0.39000000000000018        1.0004948187398590     
  2.00000000000000004E-002  0.40000000000000019        1.0004764798056653     
  2.00000000000000004E-002  0.41000000000000020        1.0004604890130124     
  2.00000000000000004E-002  0.42000000000000021        1.0004466445088684     
  2.00000000000000004E-002  0.43000000000000022        1.0004347769880182     
  2.00000000000000004E-002  0.44000000000000022        1.0004247454019157     
  2.00000000000000004E-002  0.45000000000000023        1.0004164335066439     
  2.00000000000000004E-002  0.46000000000000024        1.0004097471048474     
  2.00000000000000004E-002  0.47000000000000025        1.0004046118699170     
  2.00000000000000004E-002  0.48000000000000026        1.0004009716671505     
  2.00000000000000004E-002  0.49000000000000027        1.0003987873079039     
  2.00000000000000004E-002  0.50000000000000022        1.0003980356903575     
  2.00000000000000004E-002  0.51000000000000023        1.0003987092954907     
  2.00000000000000004E-002  0.52000000000000024        1.0004008160200852     
  2.00000000000000004E-002  0.53000000000000025        1.0004043793408286     
  2.00000000000000004E-002  0.54000000000000026        1.0004094388155123     
  2.00000000000000004E-002  0.55000000000000027        1.0004160509395483     
  2.00000000000000004E-002  0.56000000000000028        1.0004242903892795     
  2.00000000000000004E-002  0.57000000000000028        1.0004342516985161     
  2.00000000000000004E-002  0.58000000000000029        1.0004460514323381     
  2.00000000000000004E-002  0.59000000000000030        1.0004598309434940     
  2.00000000000000004E-002  0.60000000000000031        1.0004757598231799     
  2.00000000000000004E-002  0.61000000000000032        1.0004940401913869     
  2.00000000000000004E-002  0.62000000000000033        1.0005149120148664     
  2.00000000000000004E-002  0.63000000000000034        1.0005386596964827     
  2.00000000000000004E-002  0.64000000000000035        1.0005656202528987     
  2.00000000000000004E-002  0.65000000000000036        1.0005961934947083     
  2.00000000000000004E-002  0.66000000000000036        1.0006308547533389     
  2.00000000000000004E-002  0.67000000000000037        1.0006701708752439     
  2.00000000000000004E-002  0.68000000000000038        1.0007148204446350     
  2.00000000000000004E-002  0.69000000000000039        1.0007656195279711     
  2.00000000000000004E-002  0.70000000000000040        1.0008235546958484     
  2.00000000000000004E-002  0.71000000000000041        1.0008898257283252     
  2.00000000000000004E-002  0.72000000000000042        1.0009659013337580     
  2.00000000000000004E-002  0.73000000000000043        1.0010535925373376     
  2.00000000000000004E-002  0.74000000000000044        1.0011551503177962     
  2.00000000000000004E-002  0.75000000000000044        1.0012733968852110     
  2.00000000000000004E-002  0.76000000000000045        1.0014119041538676     
  2.00000000000000004E-002  0.77000000000000046        1.0015752391742228     
  2.00000000000000004E-002  0.78000000000000047        1.0017693056394614     
  2.00000000000000004E-002  0.79000000000000048        1.0020018247804794     
  2.00000000000000004E-002  0.80000000000000049        1.0022830206787987     
  2.00000000000000004E-002  0.81000000000000050        1.0026266084392115     
  2.00000000000000004E-002  0.82000000000000051        1.0030512352842273     
  2.00000000000000004E-002  0.83000000000000052        1.0035826044859166     
  2.00000000000000004E-002  0.84000000000000052        1.0042566351958631     
  2.00000000000000004E-002  0.85000000000000053        1.0051241991660249     
  2.00000000000000004E-002  0.86000000000000054        1.0062582554138824     
  2.00000000000000004E-002  0.87000000000000055        1.0077646004285354     
  2.00000000000000004E-002  0.88000000000000056        1.0097979495945488     
  2.00000000000000004E-002  0.89000000000000057        1.0125854895547239     
  2.00000000000000004E-002  0.90000000000000058        1.0164596782687862     
  2.00000000000000004E-002  0.91000000000000059        1.0218985345203164     
  2.00000000000000004E-002  0.92000000000000060        1.0295575382019815     
  2.00000000000000004E-002  0.93000000000000060        1.0402304031974028     
  2.00000000000000004E-002  0.94000000000000061        1.0545324539435093     
  2.00000000000000004E-002  0.95000000000000062        1.0716836562714365     
  2.00000000000000004E-002  0.96000000000000063        1.0856171778989043     
  2.00000000000000004E-002  0.97000000000000064        1.0736027790236589     
  2.00000000000000004E-002  0.98000000000000065       0.96493792567962333     
  2.00000000000000004E-002  0.99000000000000066       0.56222383406366805     
  2.00000000000000004E-002   1.0000000000000007      -0.56222346194823447     
  
  2.99999999999999989E-002   0.0000000000000000      -0.39988979547914560     
  2.99999999999999989E-002  1.00000000000000002E-002  0.39989030378158608     
  2.99999999999999989E-002  2.00000000000000004E-002  0.85232088822414220     
  2.99999999999999989E-002  2.99999999999999989E-002   1.0465300256659198     
  2.99999999999999989E-002  4.00000000000000008E-002   1.1073200582167102     
  2.99999999999999989E-002  5.00000000000000028E-002   1.1110894186773488     
  2.99999999999999989E-002  6.00000000000000047E-002   1.0953389969968943     
  2.99999999999999989E-002  7.00000000000000067E-002   1.0760166518803715     
  2.99999999999999989E-002  8.00000000000000017E-002   1.0588199685421409     
  2.99999999999999989E-002  8.99999999999999967E-002   1.0451203140990366     
  2.99999999999999989E-002  9.99999999999999917E-002   1.0347096639117757     
  2.99999999999999989E-002  0.10999999999999999        1.0269480039736096     
  2.99999999999999989E-002  0.11999999999999998        1.0211869166554304     
  2.99999999999999989E-002  0.12999999999999998        1.0168943216675941     
  2.99999999999999989E-002  0.13999999999999999        1.0136681987101657     
  2.99999999999999989E-002  0.14999999999999999        1.0112159784698813     
  2.99999999999999989E-002  0.16000000000000000        1.0093282192189594     
  2.99999999999999989E-002  0.17000000000000001        1.0078557420406840     
  2.99999999999999989E-002  0.18000000000000002        1.0066921098511286     
  2.99999999999999989E-002  0.19000000000000003        1.0057609317249254     
  2.99999999999999989E-002  0.20000000000000004        1.0050069100865888     
  2.99999999999999989E-002  0.21000000000000005        1.0043896059044171     
  2.99999999999999989E-002  0.22000000000000006        1.0038791146433539     
  2.99999999999999989E-002  0.23000000000000007        1.0034530641803576     
  2.99999999999999989E-002  0.24000000000000007        1.0030945211821183     
  2.99999999999999989E-002  0.25000000000000006        1.0027905211268660     
  2.99999999999999989E-002  0.26000000000000006        1.0025310275858785     
  2.99999999999999989E-002  0.27000000000000007        1.0023081885024976     
  2.99999999999999989E-002  0.28000000000000008        1.0021157993885261     
  2.99999999999999989E-002  0.29000000000000009        1.0019489118600500     
  2.99999999999999989E-002  0.30000000000000010        1.0018035451820186     
  2.99999999999999989E-002  0.31000000000000011        1.0016764715185886     
  2.99999999999999989E-002  0.32000000000000012        1.0015650544429193     
  2.99999999999999989E-002  0.33000000000000013        1.0014671263166708     
  2.99999999999999989E-002  0.34000000000000014        1.0013808943201250     
  2.99999999999999989E-002  0.35000000000000014        1.0013048678083112     
  2.99999999999999989E-002  0.36000000000000015        1.0012378016939920     
  2.99999999999999989E-002  0.37000000000000016        1.0011786519882682     
  2.99999999999999989E-002  0.38000000000000017        1.0011265406479961     
  2.99999999999999989E-002  0.39000000000000018        1.0010807276113076     
  2.99999999999999989E-002  0.40000000000000019        1.0010405884335529     
  2.99999999999999989E-002  0.41000000000000020        1.0010055963247613     
  2.99999999999999989E-002  0.42000000000000021        1.0009753076770085     
  2.99999999999999989E-002  0.43000000000000022        1.0009493503842839     
  2.99999999999999989E-002  0.44000000000000022        1.0009274144188103     
  2.99999999999999989E-002  0.45000000000000023        1.0009092442504723     
  2.99999999999999989E-002  0.46000000000000024        1.0008946327903840     
  2.99999999999999989E-002  0.47000000000000025        1.0008834166131690     
  2.99999999999999989E-002  0.48000000000000026        1.0008754722706303     
  2.99999999999999989E-002  0.49000000000000027        1.0008707135563422     
  2.99999999999999989E-002  0.50000000000000022        1.0008690896193508     
  2.99999999999999989E-002  0.51000000000000023        1.0008705838580314     
  2.99999999999999989E-002  0.52000000000000024        1.0008752135542078     
  2.99999999999999989E-002  0.53000000000000025        1.0008830302345093     
  2.99999999999999989E-002  0.54000000000000026        1.0008941207721000     
  2.99999999999999989E-002  0.55000000000000027        1.0009086092687696     
  2.99999999999999989E-002  0.56000000000000028        1.0009266597864444     
  2.99999999999999989E-002  0.57000000000000028        1.0009484800300426     
  2.99999999999999989E-002  0.58000000000000029        1.0009743261222412     
  2.99999999999999989E-002  0.59000000000000030        1.0010045086575816     
  2.99999999999999989E-002  0.60000000000000031        1.0010394002814487     
  2.99999999999999989E-002  0.61000000000000032        1.0010794451130167     
  2.99999999999999989E-002  0.62000000000000033        1.0011251704256066     
  2.99999999999999989E-002  0.63000000000000034        1.0011772011206630     
  2.99999999999999989E-002  0.64000000000000035        1.0012362776928772     
  2.99999999999999989E-002  0.65000000000000036        1.0013032785982756     
  2.99999999999999989E-002  0.66000000000000036        1.0013792482243893     
  2.99999999999999989E-002  0.67000000000000037        1.0014654320504430     
  2.99999999999999989E-002  0.68000000000000038        1.0015633211166581     
  2.99999999999999989E-002  0.69000000000000039        1.0016747086539091     
  2.99999999999999989E-002  0.70000000000000040        1.0018017627436151     
  2.99999999999999989E-002  0.71000000000000041        1.0019471203078150     
  2.99999999999999989E-002  0.72000000000000042        1.0021140097551735     
  2.99999999999999989E-002  0.73000000000000043        1.0023064125034886     
  2.99999999999999989E-002  0.74000000000000044        1.0025292777704973     